 Entering Gaussian System, Link 0=g09
 Input=bu1.com
 Output=bu1.log
 Initial command:
 /home/student/g09/l1.exe /home/student/singh/Gau-21427.inp -scrdir=/home/student/singh/
 Entering Link 1 = /home/student/g09/l1.exe PID=     21431.
  
 Copyright (c) 1988,1990,1992,1993,1995,1998,2003,2009,2011,
            Gaussian, Inc.  All Rights Reserved.
  
 This is part of the Gaussian(R) 09 program.  It is based on
 the Gaussian(R) 03 system (copyright 2003, Gaussian, Inc.),
 the Gaussian(R) 98 system (copyright 1998, Gaussian, Inc.),
 the Gaussian(R) 94 system (copyright 1995, Gaussian, Inc.),
 the Gaussian 92(TM) system (copyright 1992, Gaussian, Inc.),
 the Gaussian 90(TM) system (copyright 1990, Gaussian, Inc.),
 the Gaussian 88(TM) system (copyright 1988, Gaussian, Inc.),
 the Gaussian 86(TM) system (copyright 1986, Carnegie Mellon
 University), and the Gaussian 82(TM) system (copyright 1983,
 Carnegie Mellon University). Gaussian is a federally registered
 trademark of Gaussian, Inc.
  
 This software contains proprietary and confidential information,
 including trade secrets, belonging to Gaussian, Inc.
  
 This software is provided under written license and may be
 used, copied, transmitted, or stored only in accord with that
 written license.
  
 The following legend is applicable only to US Government
 contracts under FAR:
  
                    RESTRICTED RIGHTS LEGEND
  
 Use, reproduction and disclosure by the US Government is
 subject to restrictions as set forth in subparagraphs (a)
 and (c) of the Commercial Computer Software - Restricted
 Rights clause in FAR 52.227-19.
  
 Gaussian, Inc.
 340 Quinnipiac St., Bldg. 40, Wallingford CT 06492
  
  
 ---------------------------------------------------------------
 Warning -- This program may not be used in any manner that
 competes with the business of Gaussian, Inc. or will provide
 assistance to any competitor of Gaussian, Inc.  The licensee
 of this program is prohibited from giving any competitor of
 Gaussian, Inc. access to this program.  By using this program,
 the user acknowledges that Gaussian, Inc. is engaged in the
 business of creating and licensing software in the field of
 computational chemistry and represents and warrants to the
 licensee that it is not a competitor of Gaussian, Inc. and that
 it will not use this program in any manner prohibited above.
 ---------------------------------------------------------------
  

 Cite this work as:
 Gaussian 09, Revision C.01,
 M. J. Frisch, G. W. Trucks, H. B. Schlegel, G. E. Scuseria, 
 M. A. Robb, J. R. Cheeseman, G. Scalmani, V. Barone, B. Mennucci, 
 G. A. Petersson, H. Nakatsuji, M. Caricato, X. Li, H. P. Hratchian, 
 A. F. Izmaylov, J. Bloino, G. Zheng, J. L. Sonnenberg, M. Hada, 
 M. Ehara, K. Toyota, R. Fukuda, J. Hasegawa, M. Ishida, T. Nakajima, 
 Y. Honda, O. Kitao, H. Nakai, T. Vreven, J. A. Montgomery, Jr., 
 J. E. Peralta, F. Ogliaro, M. Bearpark, J. J. Heyd, E. Brothers, 
 K. N. Kudin, V. N. Staroverov, T. Keith, R. Kobayashi, J. Normand, 
 K. Raghavachari, A. Rendell, J. C. Burant, S. S. Iyengar, J. Tomasi, 
 M. Cossi, N. Rega, J. M. Millam, M. Klene, J. E. Knox, J. B. Cross, 
 V. Bakken, C. Adamo, J. Jaramillo, R. Gomperts, R. E. Stratmann, 
 O. Yazyev, A. J. Austin, R. Cammi, C. Pomelli, J. W. Ochterski, 
 R. L. Martin, K. Morokuma, V. G. Zakrzewski, G. A. Voth, 
 P. Salvador, J. J. Dannenberg, S. Dapprich, A. D. Daniels, 
 O. Farkas, J. B. Foresman, J. V. Ortiz, J. Cioslowski, 
 and D. J. Fox, Gaussian, Inc., Wallingford CT, 2010.
 
 ******************************************
 Gaussian 09:  EM64L-G09RevC.01 23-Sep-2011
                 2-Mar-2021 
 ******************************************
 %chk=bu1.chk
 -----------------------------------------
 # pop=full b3lyp/6-31g* geom=connectivity
 -----------------------------------------
 1/38=1,57=2/1;
 2/12=2,17=6,18=5,40=1/2;
 3/5=1,6=6,7=1,11=2,16=1,25=1,30=1,74=-5/1,2,3;
 4//1;
 5/5=2,38=5/2;
 6/7=3,28=1/1;
 99/5=1,9=1/99;
 -------------------
 Title Card Required
 -------------------
 Charge =  0 Multiplicity = 1
 Symbolic Z-Matrix:
 C                    -4.15205  -0.70175   0. 
 H                    -3.61888  -1.62946   0. 
 H                    -5.22205  -0.70175   0. 
 C                    -3.47677   0.47322   0. 
 H                    -4.00994   1.40093   0. 
 C                    -1.93677   0.47322   0. 
 H                    -1.40361  -0.45448   0. 
 C                    -1.25453   1.64417   0. 
 H                    -1.78217   2.57502   0. 
 H                    -0.18455   1.63781   0. 
 
                          Input orientation:                          
 ---------------------------------------------------------------------
 Center     Atomic      Atomic             Coordinates (Angstroms)
 Number     Number       Type             X           Y           Z
 ---------------------------------------------------------------------
      1          6           0       -4.152047   -0.701754    0.000000
      2          1           0       -3.618883   -1.629459    0.000000
      3          1           0       -5.222047   -0.701754    0.000000
      4          6           0       -3.476773    0.473223    0.000000
      5          1           0       -4.009936    1.400928    0.000000
      6          6           0       -1.936773    0.473223    0.000000
      7          1           0       -1.403609   -0.454482    0.000000
      8          6           0       -1.254529    1.644167    0.000000
      9          1           0       -1.782172    2.575024    0.000000
     10          1           0       -0.184548    1.637810    0.000000
 ---------------------------------------------------------------------
                    Distance matrix (angstroms):
                    1          2          3          4          5
     1  C    0.000000
     2  H    1.070000   0.000000
     3  H    1.070000   1.852234   0.000000
     4  C    1.355200   2.107479   2.103938   0.000000
     5  H    2.107479   3.055514   2.427032   1.070000   0.000000
     6  C    2.507591   2.692725   3.489068   1.540000   2.271265
     7  H    2.759539   2.507591   3.826436   2.271265   3.199295
     8  C    3.728131   4.038168   4.609181   2.511867   2.766123
     9  H    4.043956   4.588157   4.750791   2.699859   2.518221
    10  H    4.605932   4.740222   5.554274   3.492135   3.832716
                    6          7          8          9         10
     6  C    0.000000
     7  H    1.070000   0.000000
     8  C    1.355200   2.103938   0.000000
     9  H    2.107479   3.053066   1.070000   0.000000
    10  H    2.103938   2.421528   1.070000   1.852234   0.000000
 Stoichiometry    C4H6
 Framework group  CS[SG(C4H6)]
 Deg. of freedom    17
 Full point group                 CS      NOp   2
 Largest Abelian subgroup         CS      NOp   2
 Largest concise Abelian subgroup C1      NOp   1
                         Standard orientation:                         
 ---------------------------------------------------------------------
 Center     Atomic      Atomic             Coordinates (Angstroms)
 Number     Number       Type             X           Y           Z
 ---------------------------------------------------------------------
      1          6           0        1.171565   -1.449122    0.000000
      2          1           0        2.100090   -0.917387    0.000000
      3          1           0        1.169918   -2.519120    0.000000
      4          6           0       -0.002371   -0.772039    0.000000
      5          1           0       -0.930895   -1.303774    0.000000
      6          6           0        0.000000    0.767959    0.000000
      7          1           0        0.928525    1.299694    0.000000
      8          6           0       -1.169893    1.452004    0.000000
      9          1           0       -2.101560    0.925796    0.000000
     10          1           0       -1.161888    2.521974    0.000000
 ---------------------------------------------------------------------
 Rotational constants (GHZ):     38.8125629      4.3599464      3.9196400
 Standard basis: 6-31G(d) (6D, 7F)
 There are    56 symmetry adapted basis functions of A'  symmetry.
 There are    16 symmetry adapted basis functions of A"  symmetry.
 Integral buffers will be    131072 words long.
 Raffenetti 2 integral format.
 Two-electron integral symmetry is turned on.
    72 basis functions,   136 primitive gaussians,    72 cartesian basis functions
    15 alpha electrons       15 beta electrons
       nuclear repulsion energy       102.4963777855 Hartrees.
 NAtoms=   10 NActive=   10 NUniq=   10 SFac= 1.00D+00 NAtFMM=   60 NAOKFM=F Big=F
 One-electron integrals computed using PRISM.
 NBasis=    72 RedAO= T  NBF=    56    16
 NBsUse=    72 1.00D-06 NBFU=    56    16
 Harris functional with IExCor=  402 diagonalized for initial guess.
 ExpMin= 1.61D-01 ExpMax= 3.05D+03 ExpMxC= 4.57D+02 IAcc=1 IRadAn=         1 AccDes= 0.00D+00
 HarFok:  IExCor=  402 AccDes= 0.00D+00 IRadAn=         1 IDoV= 1
 ScaDFX=  1.000000  1.000000  1.000000  1.000000
 FoFCou: FMM=F IPFlag=           0 FMFlag=      100000 FMFlg1=           0
         NFxFlg=           0 DoJE=T BraDBF=F KetDBF=T FulRan=T
         Omega=  0.000000  0.000000  1.000000  0.000000  0.000000 ICntrl=     500 IOpCl=  0
         NMat0=    1 NMatS0=    1 NMatT0=    0 NMatD0=    1 NMtDS0=    0 NMtDT0=    0
         I1Cent=           4 NGrid=           0.
 Petite list used in FoFCou.
 Initial guess orbital symmetries:
       Occupied  (A') (A') (A') (A') (A') (A') (A') (A') (A') (A')
                 (A') (A') (A') (A") (A")
       Virtual   (A") (A") (A') (A') (A') (A') (A') (A') (A') (A')
                 (A') (A') (A') (A") (A") (A') (A') (A') (A') (A")
                 (A") (A') (A') (A') (A') (A') (A') (A') (A') (A')
                 (A') (A") (A') (A') (A") (A") (A") (A") (A') (A')
                 (A') (A') (A") (A') (A') (A') (A") (A') (A") (A')
                 (A') (A') (A') (A') (A') (A') (A')
 The electronic state of the initial guess is 1-A'.
 Requested convergence on RMS density matrix=1.00D-08 within 128 cycles.
 Requested convergence on MAX density matrix=1.00D-06.
 Requested convergence on             energy=1.00D-06.
 No special actions if energy rises.
 Keep R1 ints in memory in canonical form, NReq=4464884.
 Integral accuracy reduced to 1.0D-05 until final iterations.
 Initial convergence to 1.0D-05 achieved.  Increase integral accuracy.
 SCF Done:  E(RB3LYP) =  -155.984900948     A.U. after   12 cycles
             Convg  =    0.7367D-08             -V/T =  2.0106

 **********************************************************************

            Population analysis using the SCF density.

 **********************************************************************

 Orbital symmetries:
       Occupied  (A') (A') (A') (A') (A') (A') (A') (A') (A') (A')
                 (A') (A') (A') (A") (A")
       Virtual   (A") (A") (A') (A') (A') (A') (A') (A') (A') (A')
                 (A') (A') (A') (A") (A") (A') (A') (A") (A') (A")
                 (A') (A') (A') (A') (A') (A') (A') (A') (A') (A')
                 (A') (A') (A') (A") (A") (A") (A") (A") (A') (A')
                 (A') (A') (A") (A') (A') (A') (A") (A") (A') (A')
                 (A') (A') (A') (A') (A') (A') (A')
 The electronic state is 1-A'.
 Alpha  occ. eigenvalues --  -10.19692 -10.19662 -10.18039 -10.18019  -0.79031
 Alpha  occ. eigenvalues --   -0.72826  -0.59467  -0.55718  -0.46395  -0.45690
 Alpha  occ. eigenvalues --   -0.39204  -0.38748  -0.34547  -0.30926  -0.22852
 Alpha virt. eigenvalues --   -0.01812   0.07033   0.12183   0.12862   0.13125
 Alpha virt. eigenvalues --    0.18055   0.18563   0.21244   0.31699   0.32339
 Alpha virt. eigenvalues --    0.37310   0.47083   0.52229   0.53507   0.58038
 Alpha virt. eigenvalues --    0.60503   0.61634   0.65452   0.66790   0.67301
 Alpha virt. eigenvalues --    0.68714   0.85833   0.86949   0.87660   0.89752
 Alpha virt. eigenvalues --    0.93389   0.94242   0.96941   1.06732   1.09361
 Alpha virt. eigenvalues --    1.13626   1.31488   1.35115   1.35913   1.43310
 Alpha virt. eigenvalues --    1.52671   1.65321   1.75270   1.75760   1.90278
 Alpha virt. eigenvalues --    1.96342   2.05666   2.10033   2.13268   2.16167
 Alpha virt. eigenvalues --    2.29135   2.38788   2.40642   2.40743   2.59254
 Alpha virt. eigenvalues --    2.70390   2.85627   2.91543   4.06093   4.13019
 Alpha virt. eigenvalues --    4.21423   4.42743
     Molecular Orbital Coefficients:
                           1         2         3         4         5
                           O         O         O         O         O
     Eigenvalues --   -10.19692 -10.19662 -10.18039 -10.18019  -0.79031
   1 1   C  1S          0.02073  -0.00829   0.99246   0.00138  -0.09500
   2        2S          0.00051  -0.00032   0.04936   0.00000   0.18212
   3        2PX         0.00028  -0.00009   0.00002  -0.00002  -0.05815
   4        2PY        -0.00019   0.00002   0.00001   0.00000   0.04264
   5        2PZ         0.00000   0.00000   0.00000   0.00000   0.00000
   6        3S          0.00456  -0.00178  -0.01340   0.00071   0.14720
   7        3PX        -0.00139   0.00035   0.00097  -0.00028  -0.01153
   8        3PY         0.00146  -0.00064  -0.00071   0.00043   0.00559
   9        3PZ         0.00000   0.00000   0.00000   0.00000   0.00000
  10        4XX        -0.00047   0.00025  -0.00931  -0.00001   0.00422
  11        4YY        -0.00038   0.00018  -0.00937   0.00001   0.00207
  12        4ZZ        -0.00034   0.00007  -0.00978  -0.00004  -0.01016
  13        4XY         0.00005  -0.00002  -0.00007  -0.00002  -0.00330
  14        4XZ         0.00000   0.00000   0.00000   0.00000   0.00000
  15        4YZ         0.00000   0.00000   0.00000   0.00000   0.00000
  16 2   H  1S         -0.00013   0.00004  -0.00034  -0.00005   0.05033
  17        2S         -0.00030   0.00020   0.00227   0.00003   0.01069
  18 3   H  1S         -0.00005   0.00000  -0.00037   0.00000   0.04505
  19        2S          0.00021   0.00003   0.00217   0.00016   0.00618
  20 4   C  1S          0.92574  -0.35803  -0.02278   0.00021  -0.13073
  21        2S          0.04570  -0.01787  -0.00162  -0.00005   0.25544
  22        2PX         0.00001  -0.00005  -0.00035   0.00006   0.03910
  23        2PY        -0.00002  -0.00021   0.00019  -0.00002   0.01825
  24        2PZ         0.00000   0.00000   0.00000   0.00000   0.00000
  25        3S         -0.01228   0.00906   0.00507  -0.00063   0.16790
  26        3PX        -0.00164   0.00036   0.00172  -0.00064  -0.01918
  27        3PY        -0.00014   0.00215  -0.00099   0.00004   0.00919
  28        3PZ         0.00000   0.00000   0.00000   0.00000   0.00000
  29        4XX        -0.00851   0.00308  -0.00008  -0.00001   0.00244
  30        4YY        -0.00885   0.00286  -0.00004   0.00007   0.00536
  31        4ZZ        -0.00890   0.00327   0.00009  -0.00002  -0.01376
  32        4XY        -0.00008  -0.00001   0.00004   0.00001  -0.00138
  33        4XZ         0.00000   0.00000   0.00000   0.00000   0.00000
  34        4YZ         0.00000   0.00000   0.00000   0.00000   0.00000
  35 5   H  1S         -0.00043   0.00005  -0.00006  -0.00004   0.06846
  36        2S          0.00160  -0.00080  -0.00013  -0.00024   0.00766
  37 6   C  1S          0.35781   0.92583   0.00027  -0.02280  -0.13052
  38        2S          0.01752   0.04584  -0.00005  -0.00162   0.25498
  39        2PX         0.00004  -0.00004  -0.00006   0.00035  -0.03836
  40        2PY         0.00017  -0.00012   0.00003  -0.00019  -0.01815
  41        2PZ         0.00000   0.00000   0.00000   0.00000   0.00000
  42        3S         -0.00153  -0.01518  -0.00064   0.00509   0.16771
  43        3PX         0.00082   0.00145   0.00066  -0.00172   0.01926
  44        3PY        -0.00151   0.00153  -0.00005   0.00100  -0.00962
  45        3PZ         0.00000   0.00000   0.00000   0.00000   0.00000
  46        4XX        -0.00344  -0.00837  -0.00001  -0.00007   0.00236
  47        4YY        -0.00384  -0.00846   0.00007  -0.00004   0.00545
  48        4ZZ        -0.00357  -0.00879  -0.00003   0.00009  -0.01375
  49        4XY        -0.00006  -0.00006   0.00001   0.00004  -0.00141
  50        4XZ         0.00000   0.00000   0.00000   0.00000   0.00000
  51        4YZ         0.00000   0.00000   0.00000   0.00000   0.00000
  52 7   H  1S         -0.00025  -0.00035  -0.00004  -0.00006   0.06852
  53        2S          0.00049   0.00172  -0.00025  -0.00013   0.00782
  54 8   C  1S          0.00783   0.02094  -0.00139   0.99246  -0.09451
  55        2S          0.00010   0.00059  -0.00013   0.04936   0.18115
  56        2PX        -0.00012  -0.00026   0.00002  -0.00002   0.05775
  57        2PY         0.00011   0.00016   0.00000  -0.00001  -0.04270
  58        2PZ         0.00000   0.00000   0.00000   0.00000   0.00000
  59        3S          0.00173   0.00457   0.00075  -0.01341   0.14661
  60        3PX         0.00067   0.00125   0.00028  -0.00097   0.01168
  61        3PY        -0.00050  -0.00153  -0.00044   0.00071  -0.00555
  62        3PZ         0.00000   0.00000   0.00000   0.00000   0.00000
  63        4XX        -0.00013  -0.00051   0.00001  -0.00931   0.00418
  64        4YY        -0.00012  -0.00040   0.00003  -0.00937   0.00209
  65        4ZZ        -0.00018  -0.00030  -0.00001  -0.00978  -0.01011
  66        4XY         0.00002   0.00005  -0.00002  -0.00007  -0.00331
  67        4XZ         0.00000   0.00000   0.00000   0.00000   0.00000
  68        4YZ         0.00000   0.00000   0.00000   0.00000   0.00000
  69 9   H  1S         -0.00006  -0.00013  -0.00005  -0.00034   0.04999
  70        2S         -0.00005  -0.00036   0.00002   0.00227   0.01072
  71 10  H  1S         -0.00003  -0.00004   0.00000  -0.00037   0.04482
  72        2S          0.00016   0.00014   0.00015   0.00217   0.00612
                           6         7         8         9        10
                           O         O         O         O         O
     Eigenvalues --    -0.72826  -0.59467  -0.55718  -0.46395  -0.45690
   1 1   C  1S          0.13003  -0.10810  -0.05082   0.00619   0.01671
   2        2S         -0.25199   0.21678   0.10287  -0.01096  -0.03562
   3        2PX         0.05435   0.08047   0.14349  -0.17500  -0.14288
   4        2PY        -0.02289  -0.07534   0.01547  -0.19659   0.26718
   5        2PZ         0.00000   0.00000   0.00000   0.00000   0.00000
   6        3S         -0.19787   0.20152   0.09403  -0.04770  -0.04603
   7        3PX        -0.00388   0.03213   0.04973  -0.05549  -0.04568
   8        3PY        -0.00789  -0.03076   0.00605  -0.07975   0.10983
   9        3PZ         0.00000   0.00000   0.00000   0.00000   0.00000
  10        4XX        -0.00408  -0.00178  -0.00393  -0.00403   0.00531
  11        4YY        -0.00259   0.00567   0.00617   0.00249  -0.01168
  12        4ZZ         0.01343  -0.00997  -0.00462   0.00082   0.00124
  13        4XY         0.00065   0.00868   0.00707  -0.00459  -0.00762
  14        4XZ         0.00000   0.00000   0.00000   0.00000   0.00000
  15        4YZ         0.00000   0.00000   0.00000   0.00000   0.00000
  16 2   H  1S         -0.07489   0.10504   0.11179  -0.14486  -0.01564
  17        2S         -0.01215   0.04307   0.06150  -0.09728  -0.01372
  18 3   H  1S         -0.08041   0.12419   0.03984   0.10296  -0.17423
  19        2S         -0.02348   0.05219   0.02026   0.07423  -0.12022
  20 4   C  1S          0.08601   0.07809   0.08773  -0.00611  -0.03990
  21        2S         -0.17319  -0.16056  -0.18073   0.00903   0.08871
  22        2PX        -0.08590   0.09250   0.15231  -0.08130   0.21224
  23        2PY         0.09586  -0.11776   0.10656  -0.22759  -0.02537
  24        2PZ         0.00000   0.00000   0.00000   0.00000   0.00000
  25        3S         -0.11092  -0.14440  -0.17233   0.02710   0.05554
  26        3PX        -0.00806   0.03585   0.05734  -0.00049   0.06050
  27        3PY         0.03836  -0.02996   0.02141  -0.08569  -0.01853
  28        3PZ         0.00000   0.00000   0.00000   0.00000   0.00000
  29        4XX        -0.00692   0.00469  -0.00431   0.00147   0.00058
  30        4YY         0.00787  -0.00568   0.00612   0.00079  -0.01027
  31        4ZZ         0.00794   0.00674   0.00768  -0.00131  -0.00189
  32        4XY         0.00231  -0.01040  -0.00630   0.00389   0.00227
  33        4XZ         0.00000   0.00000   0.00000   0.00000   0.00000
  34        4YZ         0.00000   0.00000   0.00000   0.00000   0.00000
  35 5   H  1S         -0.04887  -0.07620  -0.16960   0.10638  -0.05628
  36        2S         -0.00521  -0.02639  -0.09164   0.08037  -0.05443
  37 6   C  1S         -0.08637   0.07753  -0.08806  -0.00693   0.03993
  38        2S          0.17385  -0.15940   0.18143   0.01091  -0.08878
  39        2PX        -0.08574  -0.09093   0.15284   0.07732   0.21331
  40        2PY         0.09674   0.11856   0.10516   0.22813  -0.02126
  41        2PZ         0.00000   0.00000   0.00000   0.00000   0.00000
  42        3S          0.11148  -0.14333   0.17250   0.02782  -0.05548
  43        3PX        -0.00824  -0.03527   0.05792  -0.00052   0.06072
  44        3PY         0.03844   0.03004   0.02076   0.08612  -0.01669
  45        3PZ         0.00000   0.00000   0.00000   0.00000   0.00000
  46        4XX         0.00686   0.00469   0.00426   0.00143  -0.00055
  47        4YY        -0.00780  -0.00567  -0.00609   0.00065   0.01031
  48        4ZZ        -0.00799   0.00668  -0.00771  -0.00135   0.00188
  49        4XY        -0.00234  -0.01036   0.00639   0.00403  -0.00218
  50        4XZ         0.00000   0.00000   0.00000   0.00000   0.00000
  51        4YZ         0.00000   0.00000   0.00000   0.00000   0.00000
  52 7   H  1S          0.04925  -0.07486   0.16974   0.10537   0.05797
  53        2S          0.00543  -0.02568   0.09159   0.07936   0.05556
  54 8   C  1S         -0.13046  -0.10756   0.05171   0.00670  -0.01661
  55        2S          0.25279   0.21567  -0.10470  -0.01206   0.03544
  56        2PX         0.05446  -0.07924   0.14420   0.17988  -0.13687
  57        2PY        -0.02331   0.07548   0.01349   0.18973   0.27234
  58        2PZ         0.00000   0.00000   0.00000   0.00000   0.00000
  59        3S          0.19823   0.20054  -0.09538  -0.04899   0.04534
  60        3PX        -0.00385  -0.03160   0.05021   0.05727  -0.04361
  61        3PY        -0.00775   0.03082   0.00523   0.07718   0.11162
  62        3PZ         0.00000   0.00000   0.00000   0.00000   0.00000
  63        4XX         0.00409  -0.00167   0.00389  -0.00397  -0.00535
  64        4YY         0.00259   0.00554  -0.00614   0.00230   0.01168
  65        4ZZ        -0.01348  -0.00992   0.00469   0.00085  -0.00123
  66        4XY        -0.00066   0.00868  -0.00721  -0.00474   0.00763
  67        4XZ         0.00000   0.00000   0.00000   0.00000   0.00000
  68        4YZ         0.00000   0.00000   0.00000   0.00000   0.00000
  69 9   H  1S          0.07511   0.10433  -0.11247  -0.14568   0.01219
  70        2S          0.01232   0.04277  -0.06174  -0.09787   0.01120
  71 10  H  1S          0.08066   0.12357  -0.04116   0.09907   0.17658
  72        2S          0.02352   0.05191  -0.02090   0.07153   0.12200
                          11        12        13        14        15
                           O         O         O         O         O
     Eigenvalues --    -0.39204  -0.38748  -0.34547  -0.30926  -0.22852
   1 1   C  1S          0.00653   0.02259   0.00754   0.00000   0.00000
   2        2S         -0.01240  -0.04939  -0.01666   0.00000   0.00000
   3        2PX         0.26317   0.23543  -0.01361   0.00000   0.00000
   4        2PY         0.15796  -0.14750  -0.21336   0.00000   0.00000
   5        2PZ         0.00000   0.00000   0.00000   0.22840  -0.33296
   6        3S         -0.02259  -0.08889  -0.02977   0.00000   0.00000
   7        3PX         0.10141   0.09521   0.01504   0.00000   0.00000
   8        3PY         0.04028  -0.04897  -0.07448   0.00000   0.00000
   9        3PZ         0.00000   0.00000   0.00000   0.15168  -0.26791
  10        4XX         0.01415   0.00153  -0.01601   0.00000   0.00000
  11        4YY        -0.00960   0.00713   0.01861   0.00000   0.00000
  12        4ZZ         0.00065   0.00086   0.00026   0.00000   0.00000
  13        4XY         0.01319   0.00930  -0.00881   0.00000   0.00000
  14        4XZ         0.00000   0.00000   0.00000  -0.00984   0.00907
  15        4YZ         0.00000   0.00000   0.00000   0.00687  -0.00430
  16 2   H  1S          0.19639   0.07212  -0.10621   0.00000   0.00000
  17        2S          0.17388   0.08193  -0.12004   0.00000   0.00000
  18 3   H  1S         -0.11131   0.07484   0.15316   0.00000   0.00000
  19        2S         -0.10356   0.08100   0.16000   0.00000   0.00000
  20 4   C  1S         -0.01588   0.00727  -0.01749   0.00000   0.00000
  21        2S          0.02813  -0.01825   0.03929   0.00000   0.00000
  22        2PX        -0.20469  -0.28348   0.03748   0.00000   0.00000
  23        2PY         0.02048   0.07812   0.32218   0.00000   0.00000
  24        2PZ         0.00000   0.00000   0.00000   0.31810  -0.24398
  25        3S          0.09474   0.00915   0.09706   0.00000   0.00000
  26        3PX        -0.05661  -0.05087   0.02466   0.00000   0.00000
  27        3PY         0.03030   0.01786   0.11225   0.00000   0.00000
  28        3PZ         0.00000   0.00000   0.00000   0.20558  -0.16702
  29        4XX         0.01118   0.00372  -0.01717   0.00000   0.00000
  30        4YY        -0.00692   0.00318   0.01451   0.00000   0.00000
  31        4ZZ        -0.00204  -0.00016  -0.00019   0.00000   0.00000
  32        4XY         0.01064   0.01939  -0.00791   0.00000   0.00000
  33        4XZ         0.00000   0.00000   0.00000   0.00661  -0.01290
  34        4YZ         0.00000   0.00000   0.00000   0.00397   0.01578
  35 5   H  1S          0.13039   0.14126  -0.12697   0.00000   0.00000
  36        2S          0.11265   0.15318  -0.14048   0.00000   0.00000
  37 6   C  1S          0.01702   0.00468  -0.01774   0.00000   0.00000
  38        2S         -0.03109  -0.01358   0.03987   0.00000   0.00000
  39        2PX        -0.15849   0.31205  -0.03927   0.00000   0.00000
  40        2PY         0.00974  -0.08108  -0.32185   0.00000   0.00000
  41        2PZ         0.00000   0.00000   0.00000   0.31755   0.24461
  42        3S         -0.09276   0.02413   0.09719   0.00000   0.00000
  43        3PX        -0.04829   0.05925  -0.02551   0.00000   0.00000
  44        3PY         0.02763  -0.02213  -0.11100   0.00000   0.00000
  45        3PZ         0.00000   0.00000   0.00000   0.20534   0.16745
  46        4XX        -0.01043   0.00549  -0.01723   0.00000   0.00000
  47        4YY         0.00729   0.00196   0.01448   0.00000   0.00000
  48        4ZZ         0.00200  -0.00047  -0.00019   0.00000   0.00000
  49        4XY        -0.00747   0.02086  -0.00784   0.00000   0.00000
  50        4XZ         0.00000   0.00000   0.00000  -0.00652  -0.01287
  51        4YZ         0.00000   0.00000   0.00000  -0.00394   0.01587
  52 7   H  1S         -0.10671   0.16004  -0.12747   0.00000   0.00000
  53        2S         -0.08733   0.16915  -0.14108   0.00000   0.00000
  54 8   C  1S         -0.00325   0.02335   0.00751   0.00000   0.00000
  55        2S          0.00528  -0.05070  -0.01654   0.00000   0.00000
  56        2PX         0.22416  -0.27268   0.01614   0.00000   0.00000
  57        2PY         0.17640   0.12340   0.21372   0.00000   0.00000
  58        2PZ         0.00000   0.00000   0.00000   0.22759   0.33359
  59        3S          0.00942  -0.09160  -0.03008   0.00000   0.00000
  60        3PX         0.08558  -0.10985  -0.01434   0.00000   0.00000
  61        3PY         0.04656   0.04328   0.07452   0.00000   0.00000
  62        3PZ         0.00000   0.00000   0.00000   0.15105   0.26842
  63        4XX        -0.01381   0.00390  -0.01615   0.00000   0.00000
  64        4YY         0.01062   0.00539   0.01871   0.00000   0.00000
  65        4ZZ        -0.00052   0.00096   0.00027   0.00000   0.00000
  66        4XY        -0.01137   0.01126  -0.00861   0.00000   0.00000
  67        4XZ         0.00000   0.00000   0.00000   0.00978   0.00907
  68        4YZ         0.00000   0.00000   0.00000  -0.00689  -0.00436
  69 9   H  1S         -0.18201   0.10167  -0.10695   0.00000   0.00000
  70        2S         -0.15865   0.10798  -0.12079   0.00000   0.00000
  71 10  H  1S          0.12101   0.05685   0.15351   0.00000   0.00000
  72        2S          0.11405   0.06377   0.16043   0.00000   0.00000
                          16        17        18        19        20
                           V         V         V         V         V
     Eigenvalues --    -0.01812   0.07033   0.12183   0.12862   0.13125
   1 1   C  1S          0.00000   0.00000   0.03242  -0.05091  -0.08931
   2        2S          0.00000   0.00000  -0.04677   0.07227   0.14506
   3        2PX         0.00000   0.00000  -0.13454   0.12434   0.07434
   4        2PY         0.00000   0.00000  -0.12489  -0.12277  -0.09224
   5        2PZ         0.34958   0.21885   0.00000   0.00000   0.00000
   6        3S          0.00000   0.00000  -0.49922   0.87913   1.40382
   7        3PX         0.00000   0.00000  -0.33753   0.43516   0.22145
   8        3PY         0.00000   0.00000  -0.27034  -0.26412  -0.36416
   9        3PZ         0.43896   0.44292   0.00000   0.00000   0.00000
  10        4XX         0.00000   0.00000   0.00964   0.00860  -0.00166
  11        4YY         0.00000   0.00000  -0.00726  -0.01264  -0.01121
  12        4ZZ         0.00000   0.00000   0.00338  -0.00351  -0.00350
  13        4XY         0.00000   0.00000   0.00600  -0.00262  -0.00417
  14        4XZ         0.01174   0.02190   0.00000   0.00000   0.00000
  15        4YZ        -0.00920  -0.00683   0.00000   0.00000   0.00000
  16 2   H  1S          0.00000   0.00000   0.04343  -0.00437  -0.04390
  17        2S          0.00000   0.00000   0.91759  -0.58793  -0.71072
  18 3   H  1S          0.00000   0.00000  -0.01308  -0.05499  -0.04393
  19        2S          0.00000   0.00000  -0.21807  -0.85561  -1.06594
  20 4   C  1S          0.00000   0.00000  -0.03933  -0.04350  -0.03219
  21        2S          0.00000   0.00000   0.06046   0.06598   0.02997
  22        2PX         0.00000   0.00000  -0.14952  -0.14786  -0.08896
  23        2PY         0.00000   0.00000  -0.12413  -0.08100   0.03307
  24        2PZ        -0.25595  -0.38230   0.00000   0.00000   0.00000
  25        3S          0.00000   0.00000   0.55172   0.85214   0.70967
  26        3PX         0.00000   0.00000  -0.32701  -0.43663  -0.26699
  27        3PY         0.00000   0.00000  -0.31693  -0.30771   0.44772
  28        3PZ        -0.31194  -0.62021   0.00000   0.00000   0.00000
  29        4XX         0.00000   0.00000  -0.01136  -0.00672   0.00281
  30        4YY         0.00000   0.00000   0.00762   0.00179  -0.00592
  31        4ZZ         0.00000   0.00000  -0.00419  -0.00190  -0.00233
  32        4XY         0.00000   0.00000  -0.01126   0.00683  -0.02058
  33        4XZ         0.01435   0.01716   0.00000   0.00000   0.00000
  34        4YZ        -0.01883   0.01415   0.00000   0.00000   0.00000
  35 5   H  1S          0.00000   0.00000  -0.06567   0.00784  -0.05358
  36        2S          0.00000   0.00000  -1.02870  -0.93732  -0.45073
  37 6   C  1S          0.00000   0.00000   0.04036  -0.04356   0.02973
  38        2S          0.00000   0.00000  -0.06181   0.06469  -0.02628
  39        2PX         0.00000   0.00000  -0.15486   0.14747  -0.08035
  40        2PY         0.00000   0.00000  -0.12611   0.07501   0.03803
  41        2PZ        -0.25511   0.38287   0.00000   0.00000   0.00000
  42        3S          0.00000   0.00000  -0.57490   0.86866  -0.66283
  43        3PX         0.00000   0.00000  -0.34135   0.43945  -0.23858
  44        3PY         0.00000   0.00000  -0.32518   0.27116   0.46279
  45        3PZ        -0.31042   0.62098   0.00000   0.00000   0.00000
  46        4XX         0.00000   0.00000   0.01145  -0.00619  -0.00315
  47        4YY         0.00000   0.00000  -0.00764   0.00133   0.00593
  48        4ZZ         0.00000   0.00000   0.00431  -0.00194   0.00223
  49        4XY         0.00000   0.00000   0.01092   0.00595   0.02102
  50        4XZ        -0.01422   0.01721   0.00000   0.00000   0.00000
  51        4YZ         0.01890   0.01399   0.00000   0.00000   0.00000
  52 7   H  1S          0.00000   0.00000   0.06475   0.00692   0.05421
  53        2S          0.00000   0.00000   1.05479  -0.92247   0.39711
  54 8   C  1S          0.00000   0.00000  -0.02999  -0.05723   0.08612
  55        2S          0.00000   0.00000   0.04318   0.08247  -0.14079
  56        2PX         0.00000   0.00000  -0.13042  -0.13154   0.06672
  57        2PY         0.00000   0.00000  -0.12725   0.12415  -0.08478
  58        2PZ         0.34866  -0.22011   0.00000   0.00000   0.00000
  59        3S          0.00000   0.00000   0.46218   0.97476  -1.34700
  60        3PX         0.00000   0.00000  -0.32273  -0.45601   0.19693
  61        3PY         0.00000   0.00000  -0.27458   0.27954  -0.34817
  62        3PZ         0.43756  -0.44437   0.00000   0.00000   0.00000
  63        4XX         0.00000   0.00000  -0.00985   0.00815   0.00223
  64        4YY         0.00000   0.00000   0.00773  -0.01305   0.01038
  65        4ZZ         0.00000   0.00000  -0.00320  -0.00385   0.00324
  66        4XY         0.00000   0.00000  -0.00573  -0.00315   0.00405
  67        4XZ        -0.01164   0.02188   0.00000   0.00000   0.00000
  68        4YZ         0.00924  -0.00705   0.00000   0.00000   0.00000
  69 9   H  1S          0.00000   0.00000  -0.04254  -0.00791   0.04358
  70        2S          0.00000   0.00000  -0.88970  -0.65762   0.67791
  71 10  H  1S          0.00000   0.00000   0.01489  -0.05730   0.04050
  72        2S          0.00000   0.00000   0.24664  -0.90945   1.01156
                          21        22        23        24        25
                           V         V         V         V         V
     Eigenvalues --     0.18055   0.18563   0.21244   0.31699   0.32339
   1 1   C  1S          0.03401   0.06696   0.04476   0.05362  -0.04038
   2        2S         -0.05274  -0.09547  -0.05462  -0.03124  -0.03610
   3        2PX         0.06951  -0.16007   0.08744  -0.09400  -0.07126
   4        2PY         0.15978  -0.13224   0.23994  -0.11876  -0.03042
   5        2PZ         0.00000   0.00000   0.00000   0.00000   0.00000
   6        3S         -0.41936  -1.12814  -0.82887  -1.20032   2.37110
   7        3PX         0.35956  -0.32250   0.64416   0.38121  -1.66956
   8        3PY         0.59672  -0.55466   0.84539  -1.55447   1.09808
   9        3PZ         0.00000   0.00000   0.00000   0.00000   0.00000
  10        4XX        -0.00717   0.01634   0.01088  -0.00856  -0.01313
  11        4YY         0.00957  -0.00881  -0.00734   0.00886   0.02818
  12        4ZZ         0.00395   0.00381   0.00305   0.00707  -0.01165
  13        4XY        -0.01510   0.00353   0.00141  -0.03417   0.01361
  14        4XZ         0.00000   0.00000   0.00000   0.00000   0.00000
  15        4YZ         0.00000   0.00000   0.00000   0.00000   0.00000
  16 2   H  1S         -0.04230   0.07645   0.03217  -0.08427   0.03243
  17        2S         -0.51685   1.36823  -0.66031   0.92479   0.21653
  18 3   H  1S          0.06623  -0.01487   0.00012   0.02172   0.11043
  19        2S          1.04660  -0.18686   1.38950  -0.88962   0.25452
  20 4   C  1S         -0.10140  -0.04700  -0.04139  -0.08731   0.04337
  21        2S          0.17384   0.07310   0.04001   0.06113  -0.03520
  22        2PX        -0.07843  -0.05108  -0.07102   0.23203  -0.20547
  23        2PY         0.17487  -0.08595  -0.13235   0.18266  -0.01444
  24        2PZ         0.00000   0.00000   0.00000   0.00000   0.00000
  25        3S          1.29177   0.78677   1.14144   2.47275  -1.86165
  26        3PX        -0.33499  -0.01525  -0.37660   1.08551  -2.43315
  27        3PY         0.20757  -0.20423  -0.62573   1.45122   0.68568
  28        3PZ         0.00000   0.00000   0.00000   0.00000   0.00000
  29        4XX         0.01234  -0.01854   0.00821   0.00544   0.00767
  30        4YY        -0.03323   0.01106  -0.00616  -0.01063  -0.01191
  31        4ZZ         0.00145  -0.00132  -0.00547  -0.00436   0.00449
  32        4XY         0.00376  -0.00240   0.00871  -0.00353   0.01191
  33        4XZ         0.00000   0.00000   0.00000   0.00000   0.00000
  34        4YZ         0.00000   0.00000   0.00000   0.00000   0.00000
  35 5   H  1S         -0.03329  -0.07338   0.00899  -0.00444   0.00300
  36        2S         -0.81794  -0.69176  -1.03978   0.89161  -1.17060
  37 6   C  1S          0.09950  -0.05174  -0.04164   0.08469   0.04746
  38        2S         -0.17045   0.08097   0.04041  -0.05884  -0.03866
  39        2PX        -0.07556   0.05559   0.07085   0.22270   0.21734
  40        2PY         0.17821   0.07793   0.13082   0.18190   0.02458
  41        2PZ         0.00000   0.00000   0.00000   0.00000   0.00000
  42        3S         -1.26122   0.85018   1.14661  -2.36900  -1.97029
  43        3PX        -0.33136   0.03252   0.37605   0.96014   2.47540
  44        3PY         0.21542   0.19216   0.62198   1.48086  -0.61757
  45        3PZ         0.00000   0.00000   0.00000   0.00000   0.00000
  46        4XX        -0.01302  -0.01799   0.00842  -0.00565   0.00747
  47        4YY         0.03372   0.00963  -0.00630   0.01110  -0.01139
  48        4ZZ        -0.00149  -0.00132  -0.00548   0.00397   0.00463
  49        4XY        -0.00379  -0.00231   0.00843   0.00298   0.01203
  50        4XZ         0.00000   0.00000   0.00000   0.00000   0.00000
  51        4YZ         0.00000   0.00000   0.00000   0.00000   0.00000
  52 7   H  1S          0.03031  -0.07503   0.00877   0.00460   0.00264
  53        2S          0.78597  -0.73412  -1.03716  -0.83345  -1.21476
  54 8   C  1S         -0.03103   0.06839   0.04510  -0.05131  -0.04306
  55        2S          0.04867  -0.09728  -0.05455   0.03337  -0.03460
  56        2PX         0.07811   0.15980  -0.08754  -0.09657   0.06538
  57        2PY         0.16312   0.12552  -0.24035  -0.12060   0.02401
  58        2PZ         0.00000   0.00000   0.00000   0.00000   0.00000
  59        3S          0.36964  -1.14722  -0.83855   1.06525   2.42149
  60        3PX         0.37956   0.31435  -0.64846   0.28440   1.66911
  61        3PY         0.61293   0.53147  -0.83966  -1.49767  -1.18968
  62        3PZ         0.00000   0.00000   0.00000   0.00000   0.00000
  63        4XX         0.00801   0.01596   0.01078   0.00968  -0.01242
  64        4YY        -0.01011  -0.00836  -0.00727  -0.01080   0.02729
  65        4ZZ        -0.00376   0.00404   0.00313  -0.00644  -0.01201
  66        4XY         0.01521   0.00267   0.00122   0.03327   0.01549
  67        4XZ         0.00000   0.00000   0.00000   0.00000   0.00000
  68        4YZ         0.00000   0.00000   0.00000   0.00000   0.00000
  69 9   H  1S          0.04588   0.07434   0.03227   0.08273   0.03586
  70        2S          0.57550   1.35326  -0.65567  -0.93038   0.16158
  71 10  H  1S         -0.06673  -0.01162   0.00059  -0.02724   0.10875
  72        2S         -1.04687  -0.14609   1.39368   0.88066   0.30513
                          26        27        28        29        30
                           V         V         V         V         V
     Eigenvalues --     0.37310   0.47083   0.52229   0.53507   0.58038
   1 1   C  1S         -0.04242  -0.00110   0.00732   0.00000   0.00000
   2        2S          0.06579   0.18981   0.06148   0.00000   0.00000
   3        2PX        -0.18730  -0.29246  -0.35844   0.00000   0.00000
   4        2PY         0.06920   0.34808  -0.04371   0.00000   0.00000
   5        2PZ         0.00000   0.00000   0.00000   0.51254   0.75550
   6        3S          1.28785  -0.15320   0.50809   0.00000   0.00000
   7        3PX        -1.79745   0.41301   0.64891   0.00000   0.00000
   8        3PY         0.26023  -0.45643   0.15397   0.00000   0.00000
   9        3PZ         0.00000   0.00000   0.00000  -0.45557  -0.81724
  10        4XX        -0.01865   0.05360  -0.01459   0.00000   0.00000
  11        4YY         0.01362  -0.04486   0.03479   0.00000   0.00000
  12        4ZZ         0.00177   0.00974  -0.00318   0.00000   0.00000
  13        4XY         0.01786   0.00661  -0.06105   0.00000   0.00000
  14        4XZ         0.00000   0.00000   0.00000  -0.03315  -0.01403
  15        4YZ         0.00000   0.00000   0.00000   0.01399   0.00755
  16 2   H  1S          0.07455   0.08284  -0.27542   0.00000   0.00000
  17        2S          0.99967  -0.04165  -0.19990   0.00000   0.00000
  18 3   H  1S          0.08117  -0.17837   0.13771   0.00000   0.00000
  19        2S         -0.00751   0.16213  -0.04165   0.00000   0.00000
  20 4   C  1S          0.01895   0.03989   0.01180   0.00000   0.00000
  21        2S         -0.00768  -0.09631   0.08962   0.00000   0.00000
  22        2PX        -0.09004   0.18215   0.14950   0.00000   0.00000
  23        2PY         0.31154  -0.31862  -0.32859   0.00000   0.00000
  24        2PZ         0.00000   0.00000   0.00000   0.52750   0.06380
  25        3S         -1.05891   0.57044  -0.19742   0.00000   0.00000
  26        3PX        -0.79210  -0.28255  -0.61504   0.00000   0.00000
  27        3PY         1.89355   0.47924   0.49344   0.00000   0.00000
  28        3PZ         0.00000   0.00000   0.00000  -0.38172   0.07143
  29        4XX         0.01290   0.01158   0.06744   0.00000   0.00000
  30        4YY        -0.02177   0.04280  -0.05117   0.00000   0.00000
  31        4ZZ         0.00637  -0.02892  -0.00832   0.00000   0.00000
  32        4XY        -0.03401  -0.07564  -0.00680   0.00000   0.00000
  33        4XZ         0.00000   0.00000   0.00000   0.03527   0.02790
  34        4YZ         0.00000   0.00000   0.00000  -0.00371  -0.01282
  35 5   H  1S         -0.05382  -0.14710   0.16922   0.00000   0.00000
  36        2S          0.55280   0.03010  -0.20081   0.00000   0.00000
  37 6   C  1S         -0.01929  -0.04031   0.01149   0.00000   0.00000
  38        2S          0.00796   0.09355   0.08816   0.00000   0.00000
  39        2PX        -0.09094   0.18040  -0.15109   0.00000   0.00000
  40        2PY         0.31506  -0.31288   0.32253   0.00000   0.00000
  41        2PZ         0.00000   0.00000   0.00000   0.52742  -0.06523
  42        3S          1.08191  -0.56486  -0.19600   0.00000   0.00000
  43        3PX        -0.79362  -0.27624   0.62161   0.00000   0.00000
  44        3PY         1.90429   0.47517  -0.50675   0.00000   0.00000
  45        3PZ         0.00000   0.00000   0.00000  -0.38122  -0.06982
  46        4XX        -0.01225  -0.01150   0.06712   0.00000   0.00000
  47        4YY         0.02133  -0.04419  -0.05183   0.00000   0.00000
  48        4ZZ        -0.00653   0.02896  -0.00802   0.00000   0.00000
  49        4XY         0.03384   0.07596  -0.00865   0.00000   0.00000
  50        4XZ         0.00000   0.00000   0.00000  -0.03510   0.02778
  51        4YZ         0.00000   0.00000   0.00000   0.00389  -0.01302
  52 7   H  1S          0.05518   0.14763   0.16197   0.00000   0.00000
  53        2S         -0.55961  -0.03629  -0.19204   0.00000   0.00000
  54 8   C  1S          0.04280   0.00125   0.00714   0.00000   0.00000
  55        2S         -0.06511  -0.19234   0.06211   0.00000   0.00000
  56        2PX        -0.18380  -0.29152   0.35998   0.00000   0.00000
  57        2PY         0.06944   0.35185   0.03858   0.00000   0.00000
  58        2PZ         0.00000   0.00000   0.00000   0.51089  -0.75635
  59        3S         -1.30846   0.15917   0.51493   0.00000   0.00000
  60        3PX        -1.81202   0.40807  -0.63911   0.00000   0.00000
  61        3PY         0.27524  -0.46249  -0.14594   0.00000   0.00000
  62        3PZ         0.00000   0.00000   0.00000  -0.45424   0.81753
  63        4XX         0.01868  -0.05345  -0.01494   0.00000   0.00000
  64        4YY        -0.01377   0.04469   0.03503   0.00000   0.00000
  65        4ZZ        -0.00169  -0.00994  -0.00304   0.00000   0.00000
  66        4XY        -0.01849  -0.00645  -0.06051   0.00000   0.00000
  67        4XZ         0.00000   0.00000   0.00000   0.03306  -0.01403
  68        4YZ         0.00000   0.00000   0.00000  -0.01422   0.00762
  69 9   H  1S         -0.07590  -0.08476  -0.27271   0.00000   0.00000
  70        2S         -0.99827   0.03886  -0.19119   0.00000   0.00000
  71 10  H  1S         -0.08183   0.17870   0.13568   0.00000   0.00000
  72        2S          0.01155  -0.16054  -0.04323   0.00000   0.00000
                          31        32        33        34        35
                           V         V         V         V         V
     Eigenvalues --     0.60503   0.61634   0.65452   0.66790   0.67301
   1 1   C  1S         -0.00253  -0.00929   0.00000  -0.06272   0.00000
   2        2S          0.25496  -0.46546   0.00000  -0.29699   0.00000
   3        2PX        -0.26041   0.11570   0.00000  -0.30776   0.00000
   4        2PY        -0.07112  -0.13859   0.00000   0.13508   0.00000
   5        2PZ         0.00000   0.00000   0.11087   0.00000  -0.55443
   6        3S         -0.07345   0.44315   0.00000   0.82178   0.00000
   7        3PX         0.07324   0.29790   0.00000   0.54394   0.00000
   8        3PY         0.41365   0.04640   0.00000  -0.17535   0.00000
   9        3PZ         0.00000   0.00000  -0.42276   0.00000   0.82895
  10        4XX        -0.00909  -0.05241   0.00000  -0.12666   0.00000
  11        4YY         0.06769  -0.06144   0.00000  -0.07510   0.00000
  12        4ZZ        -0.01185   0.02520   0.00000   0.07093   0.00000
  13        4XY        -0.00475  -0.02309   0.00000   0.00596   0.00000
  14        4XZ         0.00000   0.00000   0.01428   0.00000  -0.00487
  15        4YZ         0.00000   0.00000  -0.03719   0.00000  -0.01053
  16 2   H  1S         -0.07652  -0.25615   0.00000  -0.43721   0.00000
  17        2S         -0.02119  -0.20324   0.00000  -0.17204   0.00000
  18 3   H  1S          0.28840  -0.16596   0.00000  -0.30200   0.00000
  19        2S          0.17777  -0.03525   0.00000  -0.14685   0.00000
  20 4   C  1S          0.05065  -0.02879   0.00000   0.03546   0.00000
  21        2S          0.08198  -0.65842   0.00000  -0.30065   0.00000
  22        2PX        -0.09834  -0.03670   0.00000  -0.35652   0.00000
  23        2PY        -0.34850  -0.23048   0.00000   0.16393   0.00000
  24        2PZ         0.00000   0.00000  -0.76183   0.00000   0.53982
  25        3S         -0.22683   1.07443   0.00000   0.21902   0.00000
  26        3PX         0.05904   0.17947   0.00000   0.30496   0.00000
  27        3PY         0.86838  -0.01821   0.00000  -0.15295   0.00000
  28        3PZ         0.00000   0.00000   1.32195   0.00000  -0.69962
  29        4XX         0.07010  -0.09301   0.00000   0.03387   0.00000
  30        4YY         0.05694  -0.11855   0.00000  -0.01767   0.00000
  31        4ZZ        -0.05432   0.04027   0.00000  -0.02080   0.00000
  32        4XY         0.03766  -0.00696   0.00000  -0.04317   0.00000
  33        4XZ         0.00000   0.00000  -0.03144   0.00000  -0.02014
  34        4YZ         0.00000   0.00000  -0.00724   0.00000   0.02886
  35 5   H  1S          0.45818  -0.26296   0.00000   0.09170   0.00000
  36        2S          0.10349  -0.04342   0.00000   0.03855   0.00000
  37 6   C  1S         -0.04884  -0.03104   0.00000  -0.03470   0.00000
  38        2S         -0.04317  -0.66478   0.00000   0.29349   0.00000
  39        2PX        -0.09803   0.03186   0.00000  -0.34886   0.00000
  40        2PY        -0.36732   0.20886   0.00000   0.15888   0.00000
  41        2PZ         0.00000   0.00000   0.74935   0.00000   0.55712
  42        3S          0.16935   1.08179   0.00000  -0.21108   0.00000
  43        3PX         0.06041  -0.17248   0.00000   0.29872   0.00000
  44        3PY         0.87531   0.08430   0.00000  -0.14995   0.00000
  45        3PZ         0.00000   0.00000  -1.30577   0.00000  -0.73073
  46        4XX        -0.06473  -0.09677   0.00000  -0.03259   0.00000
  47        4YY        -0.04886  -0.12176   0.00000   0.01702   0.00000
  48        4ZZ         0.05188   0.04320   0.00000   0.02018   0.00000
  49        4XY        -0.03721  -0.01012   0.00000   0.04270   0.00000
  50        4XZ         0.00000   0.00000  -0.03193   0.00000   0.01951
  51        4YZ         0.00000   0.00000  -0.00627   0.00000  -0.02926
  52 7   H  1S         -0.44250  -0.29099   0.00000  -0.09060   0.00000
  53        2S         -0.10078  -0.05416   0.00000  -0.04052   0.00000
  54 8   C  1S          0.00275  -0.00961   0.00000   0.06136   0.00000
  55        2S         -0.22783  -0.47933   0.00000   0.29255   0.00000
  56        2PX        -0.25476  -0.12680   0.00000  -0.30021   0.00000
  57        2PY        -0.08008   0.13231   0.00000   0.13162   0.00000
  58        2PZ         0.00000   0.00000  -0.09816   0.00000  -0.55720
  59        3S          0.03669   0.44910   0.00000  -0.80851   0.00000
  60        3PX         0.09879  -0.30101   0.00000   0.53711   0.00000
  61        3PY         0.42149  -0.01882   0.00000  -0.16902   0.00000
  62        3PZ         0.00000   0.00000   0.40471   0.00000   0.83890
  63        4XX         0.01201  -0.05196   0.00000   0.12446   0.00000
  64        4YY        -0.06486  -0.06612   0.00000   0.07322   0.00000
  65        4ZZ         0.01075   0.02630   0.00000  -0.06938   0.00000
  66        4XY         0.00681  -0.02260   0.00000  -0.00551   0.00000
  67        4XZ         0.00000   0.00000   0.01392   0.00000   0.00515
  68        4YZ         0.00000   0.00000  -0.03718   0.00000   0.00952
  69 9   H  1S          0.09536  -0.25193   0.00000   0.43207   0.00000
  70        2S          0.03790  -0.20616   0.00000   0.17259   0.00000
  71 10  H  1S         -0.28151  -0.18729   0.00000   0.29414   0.00000
  72        2S         -0.17539  -0.04378   0.00000   0.14260   0.00000
                          36        37        38        39        40
                           V         V         V         V         V
     Eigenvalues --     0.68714   0.85833   0.86949   0.87660   0.89752
   1 1   C  1S         -0.06887  -0.00400   0.00472  -0.00416   0.00729
   2        2S         -0.09950   0.13404  -0.00942   0.35590  -0.55375
   3        2PX        -0.39574   0.31618  -0.48796  -0.20825   0.08460
   4        2PY         0.25353   0.51300  -0.61068  -0.38785   0.02724
   5        2PZ         0.00000   0.00000   0.00000   0.00000   0.00000
   6        3S          0.77487  -0.87095   0.08272  -1.31458   1.11285
   7        3PX         0.29900  -0.70287   1.23908   0.67478  -0.75679
   8        3PY        -0.27300  -1.60207   1.72210   0.55707  -0.58290
   9        3PZ         0.00000   0.00000   0.00000   0.00000   0.00000
  10        4XX        -0.08614  -0.04993   0.05681   0.08663  -0.01658
  11        4YY        -0.08374   0.04079  -0.04177  -0.06976  -0.05847
  12        4ZZ         0.06537   0.02208  -0.01313   0.02334  -0.01195
  13        4XY         0.03774  -0.01886   0.04231   0.05804   0.02836
  14        4XZ         0.00000   0.00000   0.00000   0.00000   0.00000
  15        4YZ         0.00000   0.00000   0.00000   0.00000   0.00000
  16 2   H  1S         -0.23717  -0.27614   0.31323   0.19053   0.09100
  17        2S         -0.05516   1.18708  -1.49624  -0.62079   0.26250
  18 3   H  1S         -0.36185   0.25396  -0.21459  -0.25492   0.13479
  19        2S         -0.09229  -1.02768   1.20272   0.90987  -0.52792
  20 4   C  1S          0.05004  -0.01618  -0.00283  -0.00895  -0.04017
  21        2S         -0.06968   0.22580   0.23667   0.34838  -0.06128
  22        2PX        -0.35480  -0.47141  -0.03604  -0.47415  -0.37923
  23        2PY         0.34156  -0.31488   0.15872  -0.25292  -0.56343
  24        2PZ         0.00000   0.00000   0.00000   0.00000   0.00000
  25        3S         -0.11480  -0.73994  -1.04637  -0.48242   0.94617
  26        3PX         0.06857   1.90443  -0.34280   1.56631   0.71743
  27        3PY        -0.17276   0.92620  -1.35828   0.24886   2.73475
  28        3PZ         0.00000   0.00000   0.00000   0.00000   0.00000
  29        4XX         0.07606   0.04640  -0.03309  -0.03308  -0.10245
  30        4YY         0.03886  -0.05674   0.01398   0.05590   0.04371
  31        4ZZ        -0.04876   0.03662   0.03240   0.03881   0.05827
  32        4XY        -0.03479   0.01419  -0.06234  -0.07800  -0.04449
  33        4XZ         0.00000   0.00000   0.00000   0.00000   0.00000
  34        4YZ         0.00000   0.00000   0.00000   0.00000   0.00000
  35 5   H  1S          0.11333  -0.11321  -0.17163  -0.40312  -0.42503
  36        2S         -0.08764   1.38076  -0.09239   1.46157   1.49337
  37 6   C  1S          0.05053  -0.01589   0.00295  -0.00727   0.04062
  38        2S         -0.07449   0.22806  -0.24675   0.35077   0.04688
  39        2PX         0.36289   0.46703  -0.04428   0.46437  -0.40028
  40        2PY        -0.34532   0.30708   0.15530   0.23314  -0.57459
  41        2PZ         0.00000   0.00000   0.00000   0.00000   0.00000
  42        3S         -0.10648  -0.76156   1.05651  -0.50148  -0.92452
  43        3PX        -0.08024  -1.88489  -0.32309  -1.56308   0.79183
  44        3PY         0.16452  -0.88638  -1.35997  -0.16381   2.74807
  45        3PZ         0.00000   0.00000   0.00000   0.00000   0.00000
  46        4XX         0.07664   0.04679   0.03480  -0.02792   0.10309
  47        4YY         0.03892  -0.05753  -0.01704   0.05411  -0.04487
  48        4ZZ        -0.04914   0.03653  -0.03298   0.03615  -0.05990
  49        4XY        -0.03554   0.01348   0.06398  -0.07506   0.04651
  50        4XZ         0.00000   0.00000   0.00000   0.00000   0.00000
  51        4YZ         0.00000   0.00000   0.00000   0.00000   0.00000
  52 7   H  1S          0.11718  -0.11135   0.18177  -0.38613   0.44014
  53        2S         -0.08082   1.35995   0.06487   1.41786  -1.55369
  54 8   C  1S         -0.06998  -0.00395  -0.00453  -0.00391  -0.00738
  55        2S         -0.10490   0.13622  -0.00022   0.37708   0.53677
  56        2PX         0.40053  -0.31315  -0.49911   0.20279   0.08277
  57        2PY        -0.25741  -0.50565  -0.62310   0.36408   0.01633
  58        2PZ         0.00000   0.00000   0.00000   0.00000   0.00000
  59        3S          0.78796  -0.86248  -0.05236  -1.36624  -1.05751
  60        3PX        -0.30644   0.69571   1.27265  -0.68271  -0.74101
  61        3PY         0.27716   1.57519   1.74498  -0.50723  -0.57136
  62        3PZ         0.00000   0.00000   0.00000   0.00000   0.00000
  63        4XX        -0.08892  -0.04940  -0.06039   0.08607   0.01368
  64        4YY        -0.08478   0.04129   0.04478  -0.06525   0.06015
  65        4ZZ         0.06678   0.02182   0.01256   0.02295   0.01093
  66        4XY         0.03781  -0.01862  -0.04330   0.05538  -0.02890
  67        4XZ         0.00000   0.00000   0.00000   0.00000   0.00000
  68        4YZ         0.00000   0.00000   0.00000   0.00000   0.00000
  69 9   H  1S         -0.24723  -0.27488  -0.32056   0.18131  -0.09161
  70        2S         -0.05624   1.16885   1.52275  -0.59055  -0.25176
  71 10  H  1S         -0.36377   0.25151   0.22559  -0.24705  -0.12813
  72        2S         -0.09639  -1.01521  -1.23925   0.87644   0.50484
                          41        42        43        44        45
                           V         V         V         V         V
     Eigenvalues --     0.93389   0.94242   0.96941   1.06732   1.09361
   1 1   C  1S         -0.02756   0.02335   0.00828  -0.01118  -0.01318
   2        2S         -0.17218  -0.36123  -0.87023  -1.09244  -0.55686
   3        2PX         0.26656  -0.45287  -0.27167   0.05376   0.01771
   4        2PY        -0.41161   0.24255   0.10144  -0.24796   0.36869
   5        2PZ         0.00000   0.00000   0.00000   0.00000   0.00000
   6        3S          1.18221   0.02886   1.85099   2.23796   4.35700
   7        3PX        -1.23313   1.05712   0.49008  -0.07778  -1.57223
   8        3PY         1.02953  -0.64211   0.10787   0.85117  -0.66659
   9        3PZ         0.00000   0.00000   0.00000   0.00000   0.00000
  10        4XX         0.02163  -0.02979  -0.05990  -0.09509   0.12236
  11        4YY        -0.11278   0.04770   0.00073  -0.04283  -0.10977
  12        4ZZ         0.07518  -0.07531  -0.06387  -0.01671  -0.06654
  13        4XY        -0.07425   0.10795   0.05429  -0.01501  -0.02696
  14        4XZ         0.00000   0.00000   0.00000   0.00000   0.00000
  15        4YZ         0.00000   0.00000   0.00000   0.00000   0.00000
  16 2   H  1S         -0.21492   0.49212   0.35102  -0.04998   0.19014
  17        2S          0.46521  -0.89651  -1.00742  -0.73401  -0.04102
  18 3   H  1S         -0.35314   0.44465   0.33525   0.15920  -0.28564
  19        2S          0.92659  -0.84885  -0.64584  -0.12393  -0.90326
  20 4   C  1S         -0.01712  -0.01061  -0.00277   0.01069   0.02044
  21        2S         -0.50757  -0.43320  -0.60110   0.73726   0.56650
  22        2PX         0.41685  -0.21091   0.26883  -0.09200   0.31447
  23        2PY        -0.29331   0.00772   0.10486  -0.00454  -0.22102
  24        2PZ         0.00000   0.00000   0.00000   0.00000   0.00000
  25        3S          0.92635   1.26497   1.12031  -1.99698  -3.00268
  26        3PX        -1.30581   0.99767  -0.66447   0.52293  -3.05661
  27        3PY         1.98384  -0.18793  -0.28030   0.11608   1.49590
  28        3PZ         0.00000   0.00000   0.00000   0.00000   0.00000
  29        4XX        -0.10221  -0.01863  -0.02851   0.00194  -0.00857
  30        4YY        -0.00677  -0.05801  -0.03066   0.14136   0.03839
  31        4ZZ         0.00875   0.01132  -0.01896  -0.00650   0.00778
  32        4XY         0.08354  -0.03772   0.06739   0.06265  -0.04078
  33        4XZ         0.00000   0.00000   0.00000   0.00000   0.00000
  34        4YZ         0.00000   0.00000   0.00000   0.00000   0.00000
  35 5   H  1S          0.13755  -0.12026   0.21865   0.14829  -0.32094
  36        2S         -0.44179   0.46813  -1.00120   0.64933  -0.32392
  37 6   C  1S          0.01749  -0.01047   0.00277   0.01088   0.01971
  38        2S          0.50985  -0.42948   0.59788   0.73674   0.55225
  39        2PX         0.40356   0.21700   0.27054   0.09383  -0.31586
  40        2PY        -0.29528  -0.01319   0.10636   0.00496   0.22485
  41        2PZ         0.00000   0.00000   0.00000   0.00000   0.00000
  42        3S         -0.94775   1.25571  -1.11681  -1.99420  -2.94752
  43        3PX        -1.25222  -1.01250  -0.66437  -0.53288   3.05572
  44        3PY         1.98037   0.21894  -0.28558  -0.08642  -1.56271
  45        3PZ         0.00000   0.00000   0.00000   0.00000   0.00000
  46        4XX         0.10248  -0.01793   0.02819   0.00258  -0.00996
  47        4YY         0.00691  -0.05772   0.03005   0.14116   0.03784
  48        4ZZ        -0.00910   0.01125   0.01922  -0.00665   0.00812
  49        4XY        -0.08261  -0.03856  -0.06823   0.06132  -0.03910
  50        4XZ         0.00000   0.00000   0.00000   0.00000   0.00000
  51        4YZ         0.00000   0.00000   0.00000   0.00000   0.00000
  52 7   H  1S         -0.13084  -0.12145  -0.22285   0.14269  -0.31839
  53        2S          0.40946   0.47326   1.00791   0.64907  -0.31966
  54 8   C  1S          0.02706   0.02395  -0.00804  -0.01067  -0.01349
  55        2S          0.17391  -0.37150   0.86669  -1.08491  -0.56114
  56        2PX         0.25136   0.46060  -0.26608  -0.05252  -0.02011
  57        2PY        -0.41726  -0.25221   0.09656   0.24691  -0.36658
  58        2PZ         0.00000   0.00000   0.00000   0.00000   0.00000
  59        3S         -1.15694   0.03974  -1.83435   2.20753   4.37086
  60        3PX        -1.18688  -1.07795   0.48428   0.05377   1.59268
  61        3PY         1.04174   0.66427   0.12082  -0.84976   0.65180
  62        3PZ         0.00000   0.00000   0.00000   0.00000   0.00000
  63        4XX        -0.02011  -0.02985   0.06001  -0.09516   0.12150
  64        4YY         0.11093   0.04823   0.00003  -0.04082  -0.11099
  65        4ZZ        -0.07435  -0.07744   0.06252  -0.01767  -0.06521
  66        4XY         0.07269   0.11047  -0.05367  -0.01471  -0.02841
  67        4XZ         0.00000   0.00000   0.00000   0.00000   0.00000
  68        4YZ         0.00000   0.00000   0.00000   0.00000   0.00000
  69 9   H  1S          0.20677   0.50047  -0.34445  -0.05293   0.19231
  70        2S         -0.43451  -0.91717   0.99746  -0.73722  -0.03283
  71 10  H  1S          0.34565   0.45453  -0.33139   0.16366  -0.28522
  72        2S         -0.92708  -0.87340   0.62900  -0.12534  -0.89869
                          46        47        48        49        50
                           V         V         V         V         V
     Eigenvalues --     1.13626   1.31488   1.35115   1.35913   1.43310
   1 1   C  1S         -0.02223   0.00430   0.02826   0.00000   0.00000
   2        2S         -0.59399  -0.09204   0.75653   0.00000   0.00000
   3        2PX         0.08479   0.09148  -0.02255   0.00000   0.00000
   4        2PY         0.05949  -0.07044   0.07333   0.00000   0.00000
   5        2PZ         0.00000   0.00000   0.00000  -0.09837  -0.09126
   6        3S          2.42588  -0.80331  -3.49820   0.00000   0.00000
   7        3PX        -1.54695  -0.77750   0.09198   0.00000   0.00000
   8        3PY        -0.89177  -1.64199  -2.42776   0.00000   0.00000
   9        3PZ         0.00000   0.00000   0.00000  -0.00068  -0.02039
  10        4XX         0.06204   0.03960   0.05530   0.00000   0.00000
  11        4YY        -0.12549  -0.07907  -0.00421   0.00000   0.00000
  12        4ZZ        -0.01153   0.03988   0.01968   0.00000   0.00000
  13        4XY         0.01409   0.05190   0.14562   0.00000   0.00000
  14        4XZ         0.00000   0.00000   0.00000  -0.32063  -0.29253
  15        4YZ         0.00000   0.00000   0.00000   0.00874   0.28681
  16 2   H  1S          0.30861   0.45084   0.47017   0.00000   0.00000
  17        2S          0.35392   0.59487   0.83706   0.00000   0.00000
  18 3   H  1S         -0.43890  -0.40105  -0.32482   0.00000   0.00000
  19        2S         -0.59770  -0.46799  -0.40793   0.00000   0.00000
  20 4   C  1S          0.02581   0.00302  -0.06006   0.00000   0.00000
  21        2S          0.85132  -0.27515  -1.09413   0.00000   0.00000
  22        2PX        -0.01038  -0.08281  -0.34592   0.00000   0.00000
  23        2PY        -0.02754  -0.35060   0.00814   0.00000   0.00000
  24        2PZ         0.00000   0.00000   0.00000  -0.01723  -0.12578
  25        3S         -2.48625  -0.53391   5.96104   0.00000   0.00000
  26        3PX         0.01520   2.36726   2.24856   0.00000   0.00000
  27        3PY         1.72427   1.51183   2.44071   0.00000   0.00000
  28        3PZ         0.00000   0.00000   0.00000   0.04765   0.06306
  29        4XX         0.07753   0.05319  -0.02646   0.00000   0.00000
  30        4YY         0.04775  -0.11052  -0.00116   0.00000   0.00000
  31        4ZZ        -0.03014   0.03140   0.00208   0.00000   0.00000
  32        4XY         0.10000   0.05381   0.05076   0.00000   0.00000
  33        4XZ         0.00000   0.00000   0.00000   0.08063   0.47546
  34        4YZ         0.00000   0.00000   0.00000  -0.52298  -0.03623
  35 5   H  1S          0.41325   0.73192   0.16938   0.00000   0.00000
  36        2S          0.64150   1.14783   0.60525   0.00000   0.00000
  37 6   C  1S         -0.02618   0.00587   0.05952   0.00000   0.00000
  38        2S         -0.86108  -0.22385   1.10615   0.00000   0.00000
  39        2PX        -0.01166   0.06707  -0.35413   0.00000   0.00000
  40        2PY        -0.02808   0.35437  -0.00751   0.00000   0.00000
  41        2PZ         0.00000   0.00000   0.00000  -0.01816   0.12481
  42        3S          2.51928  -0.80947  -5.94333   0.00000   0.00000
  43        3PX         0.00546  -2.24992   2.38501   0.00000   0.00000
  44        3PY         1.73113  -1.44692   2.49057   0.00000   0.00000
  45        3PZ         0.00000   0.00000   0.00000   0.04859  -0.06302
  46        4XX        -0.07841   0.05470   0.02295   0.00000   0.00000
  47        4YY        -0.04955  -0.11015   0.00327   0.00000   0.00000
  48        4ZZ         0.03103   0.03126  -0.00066   0.00000   0.00000
  49        4XY        -0.10069   0.05267  -0.05351   0.00000   0.00000
  50        4XZ         0.00000   0.00000   0.00000  -0.08099   0.47205
  51        4YZ         0.00000   0.00000   0.00000   0.52340  -0.03682
  52 7   H  1S         -0.41031   0.72429  -0.20380   0.00000   0.00000
  53        2S         -0.64232   1.12493  -0.66214   0.00000   0.00000
  54 8   C  1S          0.02260   0.00259  -0.02853   0.00000   0.00000
  55        2S          0.60224  -0.12950  -0.75420   0.00000   0.00000
  56        2PX         0.08347  -0.09058  -0.01798   0.00000   0.00000
  57        2PY         0.05816   0.07309   0.06976   0.00000   0.00000
  58        2PZ         0.00000   0.00000   0.00000  -0.09895   0.09029
  59        3S         -2.46630  -0.60009   3.55011   0.00000   0.00000
  60        3PX        -1.55536   0.81836   0.05112   0.00000   0.00000
  61        3PY        -0.86624   1.53524  -2.50155   0.00000   0.00000
  62        3PZ         0.00000   0.00000   0.00000  -0.00112   0.02057
  63        4XX        -0.06112   0.03778  -0.05793   0.00000   0.00000
  64        4YY         0.12571  -0.08024   0.00812   0.00000   0.00000
  65        4ZZ         0.01155   0.03951  -0.02089   0.00000   0.00000
  66        4XY        -0.01225   0.04417  -0.14819   0.00000   0.00000
  67        4XZ         0.00000   0.00000   0.00000   0.32193  -0.28747
  68        4YZ         0.00000   0.00000   0.00000  -0.01244   0.28647
  69 9   H  1S         -0.30453   0.43080  -0.48811   0.00000   0.00000
  70        2S         -0.34568   0.56624  -0.86334   0.00000   0.00000
  71 10  H  1S          0.43660  -0.39142   0.34066   0.00000   0.00000
  72        2S          0.59738  -0.45541   0.42880   0.00000   0.00000
                          51        52        53        54        55
                           V         V         V         V         V
     Eigenvalues --     1.52671   1.65321   1.75270   1.75760   1.90278
   1 1   C  1S          0.00000   0.00000   0.00000  -0.00614  -0.01698
   2        2S          0.00000   0.00000   0.00000   0.05734  -0.15928
   3        2PX         0.00000   0.00000   0.00000   0.08508   0.06606
   4        2PY         0.00000   0.00000   0.00000   0.10242  -0.17736
   5        2PZ         0.09077   0.02659   0.01014   0.00000   0.00000
   6        3S          0.00000   0.00000   0.00000  -0.48664  -0.04414
   7        3PX         0.00000   0.00000   0.00000   0.26362   0.04927
   8        3PY         0.00000   0.00000   0.00000  -0.27269  -0.26923
   9        3PZ        -0.07070  -0.07172  -0.02038   0.00000   0.00000
  10        4XX         0.00000   0.00000   0.00000   0.19442  -0.04566
  11        4YY         0.00000   0.00000   0.00000   0.00918   0.37358
  12        4ZZ         0.00000   0.00000   0.00000  -0.21377  -0.41595
  13        4XY         0.00000   0.00000   0.00000   0.21040  -0.12654
  14        4XZ         0.12822   0.43456   0.41596   0.00000   0.00000
  15        4YZ        -0.43466   0.51642   0.47057   0.00000   0.00000
  16 2   H  1S          0.00000   0.00000   0.00000  -0.28789   0.09824
  17        2S          0.00000   0.00000   0.00000   0.08252  -0.05226
  18 3   H  1S          0.00000   0.00000   0.00000   0.05061  -0.37358
  19        2S          0.00000   0.00000   0.00000  -0.11258  -0.09422
  20 4   C  1S          0.00000   0.00000   0.00000   0.00455  -0.02877
  21        2S          0.00000   0.00000   0.00000  -0.47703  -0.09054
  22        2PX         0.00000   0.00000   0.00000  -0.02680  -0.16695
  23        2PY         0.00000   0.00000   0.00000  -0.27063   0.02081
  24        2PZ         0.07465  -0.01522   0.06264   0.00000   0.00000
  25        3S          0.00000   0.00000   0.00000   0.65441   0.46641
  26        3PX         0.00000   0.00000   0.00000   0.62519   0.44187
  27        3PY         0.00000   0.00000   0.00000   0.22949  -0.18147
  28        3PZ         0.04122   0.19033   0.00652   0.00000   0.00000
  29        4XX         0.00000   0.00000   0.00000  -0.16620   0.45304
  30        4YY         0.00000   0.00000   0.00000   0.52247  -0.13654
  31        4ZZ         0.00000   0.00000   0.00000  -0.38335  -0.40279
  32        4XY         0.00000   0.00000   0.00000   0.02600   0.12057
  33        4XZ        -0.42957  -0.00780  -0.20120   0.00000   0.00000
  34        4YZ        -0.19823   0.19058  -0.28393   0.00000   0.00000
  35 5   H  1S          0.00000   0.00000   0.00000   0.09793  -0.31853
  36        2S          0.00000   0.00000   0.00000   0.14208   0.15634
  37 6   C  1S          0.00000   0.00000   0.00000   0.00483  -0.02895
  38        2S          0.00000   0.00000   0.00000  -0.47167  -0.09519
  39        2PX         0.00000   0.00000   0.00000   0.02468   0.16605
  40        2PY         0.00000   0.00000   0.00000   0.26971  -0.02338
  41        2PZ         0.07498   0.01530   0.06306   0.00000   0.00000
  42        3S          0.00000   0.00000   0.00000   0.61873   0.47382
  43        3PX         0.00000   0.00000   0.00000  -0.60678  -0.44970
  44        3PY         0.00000   0.00000   0.00000  -0.21183   0.19280
  45        3PZ         0.04172  -0.19107   0.00676   0.00000   0.00000
  46        4XX         0.00000   0.00000   0.00000  -0.16771   0.45519
  47        4YY         0.00000   0.00000   0.00000   0.52264  -0.13768
  48        4ZZ         0.00000   0.00000   0.00000  -0.38313  -0.40510
  49        4XY         0.00000   0.00000   0.00000   0.02659   0.10751
  50        4XZ         0.43374  -0.00780   0.20310   0.00000   0.00000
  51        4YZ         0.19760   0.19066   0.28257   0.00000   0.00000
  52 7   H  1S          0.00000   0.00000   0.00000   0.09659  -0.31125
  53        2S          0.00000   0.00000   0.00000   0.13535   0.15232
  54 8   C  1S          0.00000   0.00000   0.00000  -0.00635  -0.01698
  55        2S          0.00000   0.00000   0.00000   0.05294  -0.16406
  56        2PX         0.00000   0.00000   0.00000  -0.08654  -0.06970
  57        2PY         0.00000   0.00000   0.00000  -0.10270   0.17912
  58        2PZ         0.09093  -0.02720   0.01013   0.00000   0.00000
  59        3S          0.00000   0.00000   0.00000  -0.46194  -0.04874
  60        3PX         0.00000   0.00000   0.00000  -0.26058  -0.05052
  61        3PY         0.00000   0.00000   0.00000   0.25690   0.27086
  62        3PZ        -0.07059   0.07270  -0.02044   0.00000   0.00000
  63        4XX         0.00000   0.00000   0.00000   0.19849  -0.04259
  64        4YY         0.00000   0.00000   0.00000   0.00412   0.37288
  65        4ZZ         0.00000   0.00000   0.00000  -0.21360  -0.42025
  66        4XY         0.00000   0.00000   0.00000   0.20776  -0.12540
  67        4XZ        -0.12583   0.43752  -0.42065   0.00000   0.00000
  68        4YZ         0.43877   0.51071  -0.46878   0.00000   0.00000
  69 9   H  1S          0.00000   0.00000   0.00000  -0.29144   0.09720
  70        2S          0.00000   0.00000   0.00000   0.07657  -0.05515
  71 10  H  1S          0.00000   0.00000   0.00000   0.05536  -0.37164
  72        2S          0.00000   0.00000   0.00000  -0.11008  -0.09654
                          56        57        58        59        60
                           V         V         V         V         V
     Eigenvalues --     1.96342   2.05666   2.10033   2.13268   2.16167
   1 1   C  1S          0.01002  -0.02590   0.00000  -0.02618   0.00108
   2        2S         -0.03460  -0.33111   0.00000  -0.16272  -0.09615
   3        2PX         0.17514   0.17719   0.00000   0.11482   0.11394
   4        2PY         0.05775  -0.18168   0.00000   0.01604  -0.04638
   5        2PZ         0.00000   0.00000  -0.00308   0.00000   0.00000
   6        3S         -0.62103   0.46030   0.00000   0.79797  -0.81904
   7        3PX        -0.06420  -0.44010   0.00000  -0.11689   0.00335
   8        3PY        -0.32919  -0.26505   0.00000   0.14288   0.24859
   9        3PZ         0.00000   0.00000  -0.18172   0.00000   0.00000
  10        4XX         0.25969   0.07764   0.00000   0.34932   0.28401
  11        4YY        -0.37882   0.28740   0.00000   0.10925  -0.49865
  12        4ZZ         0.05050  -0.49840   0.00000  -0.46197   0.09986
  13        4XY        -0.08035  -0.27584   0.00000   0.52007  -0.42796
  14        4XZ         0.00000   0.00000   0.21568   0.00000   0.00000
  15        4YZ         0.00000   0.00000  -0.37047   0.00000   0.00000
  16 2   H  1S          0.01521   0.10419   0.00000  -0.60041   0.13774
  17        2S          0.12886   0.08804   0.00000   0.13680   0.02692
  18 3   H  1S          0.29650  -0.32957   0.00000  -0.10010   0.44200
  19        2S         -0.18139  -0.11888   0.00000   0.02418   0.06683
  20 4   C  1S         -0.00566  -0.02117   0.00000  -0.02573  -0.01603
  21        2S         -0.16629  -0.45798   0.00000  -0.01864  -0.35997
  22        2PX        -0.00015  -0.16170   0.00000   0.11424  -0.23937
  23        2PY         0.13319  -0.06494   0.00000   0.10108   0.13385
  24        2PZ         0.00000   0.00000   0.03632   0.00000   0.00000
  25        3S          0.67681   0.96314   0.00000   0.54951   0.62568
  26        3PX         0.73552   0.24292   0.00000  -0.25084   0.89771
  27        3PY         0.29962   0.70536   0.00000   0.96825  -0.32623
  28        3PZ         0.00000   0.00000   0.37934   0.00000   0.00000
  29        4XX        -0.21168   0.34223   0.00000  -0.17258   0.15765
  30        4YY        -0.01280  -0.12807   0.00000   0.31512  -0.01017
  31        4ZZ         0.16893  -0.28873   0.00000  -0.12939  -0.25833
  32        4XY        -0.54413  -0.21609   0.00000  -0.01929  -0.27751
  33        4XZ         0.00000   0.00000   0.42818   0.00000   0.00000
  34        4YZ         0.00000   0.00000   0.51879   0.00000   0.00000
  35 5   H  1S          0.56317  -0.04602   0.00000   0.06552   0.11872
  36        2S          0.13980   0.09123   0.00000   0.06718   0.11808
  37 6   C  1S          0.00504   0.02073   0.00000   0.02533  -0.01620
  38        2S          0.16288   0.45815   0.00000   0.01272  -0.35830
  39        2PX         0.00273  -0.15886   0.00000   0.11811   0.23585
  40        2PY         0.13166  -0.06493   0.00000   0.09786  -0.13701
  41        2PZ         0.00000   0.00000  -0.03708   0.00000   0.00000
  42        3S         -0.66248  -0.95645   0.00000  -0.52732   0.62248
  43        3PX         0.72512   0.22959   0.00000  -0.27452  -0.89107
  44        3PY         0.30541   0.71046   0.00000   0.98383   0.32151
  45        3PZ         0.00000   0.00000  -0.38007   0.00000   0.00000
  46        4XX         0.22089  -0.33685   0.00000   0.17633   0.15205
  47        4YY         0.00944   0.12541   0.00000  -0.31506  -0.00488
  48        4ZZ        -0.17638   0.28475   0.00000   0.12434  -0.25798
  49        4XY         0.54227   0.21899   0.00000   0.01203  -0.28007
  50        4XZ         0.00000   0.00000   0.43245   0.00000   0.00000
  51        4YZ         0.00000   0.00000   0.51565   0.00000   0.00000
  52 7   H  1S         -0.56726   0.04254   0.00000  -0.06315   0.12264
  53        2S         -0.13759  -0.08467   0.00000  -0.06548   0.11554
  54 8   C  1S         -0.01034   0.02569   0.00000   0.02615   0.00073
  55        2S          0.03080   0.32789   0.00000   0.15990  -0.09914
  56        2PX         0.17231   0.17495   0.00000   0.11167  -0.11527
  57        2PY         0.05901  -0.17948   0.00000   0.01835   0.04677
  58        2PZ         0.00000   0.00000   0.00305   0.00000   0.00000
  59        3S          0.61434  -0.46849   0.00000  -0.82482  -0.80441
  60        3PX        -0.07215  -0.44664   0.00000  -0.12326  -0.00212
  61        3PY        -0.33029  -0.26511   0.00000   0.13598  -0.24864
  62        3PZ         0.00000   0.00000   0.18294   0.00000   0.00000
  63        4XX        -0.25545  -0.07643   0.00000  -0.35225   0.28441
  64        4YY         0.38220  -0.28514   0.00000  -0.10824  -0.49259
  65        4ZZ        -0.05955   0.49406   0.00000   0.46190   0.09347
  66        4XY         0.08493   0.27217   0.00000  -0.52341  -0.42651
  67        4XZ         0.00000   0.00000   0.21593   0.00000   0.00000
  68        4YZ         0.00000   0.00000  -0.37400   0.00000   0.00000
  69 9   H  1S         -0.01947  -0.10368   0.00000   0.60102   0.13014
  70        2S         -0.13057  -0.09076   0.00000  -0.13689   0.02769
  71 10  H  1S         -0.29899   0.32649   0.00000   0.10589   0.43977
  72        2S          0.18210   0.12166   0.00000  -0.01906   0.06568
                          61        62        63        64        65
                           V         V         V         V         V
     Eigenvalues --     2.29135   2.38788   2.40642   2.40743   2.59254
   1 1   C  1S         -0.03902   0.00000   0.00000  -0.00265  -0.03738
   2        2S         -0.22844   0.00000   0.00000  -0.06468   0.06478
   3        2PX         0.06062   0.00000   0.00000   0.06630  -0.29313
   4        2PY        -0.01440   0.00000   0.00000  -0.04241   0.19694
   5        2PZ         0.00000  -0.07934   0.07168   0.00000   0.00000
   6        3S          0.73515   0.00000   0.00000   0.34039   1.48316
   7        3PX        -0.07857   0.00000   0.00000   0.12422  -0.81555
   8        3PY         0.43148   0.00000   0.00000  -0.18780   0.08314
   9        3PZ         0.00000  -0.19047   0.13054   0.00000   0.00000
  10        4XX         0.50429   0.00000   0.00000  -0.46747  -0.02100
  11        4YY         0.00332   0.00000   0.00000   0.55271   0.33405
  12        4ZZ        -0.57265   0.00000   0.00000  -0.09464  -0.31728
  13        4XY         0.19536   0.00000   0.00000   0.18091  -0.68335
  14        4XZ         0.00000   0.54004  -0.48998   0.00000   0.00000
  15        4YZ         0.00000  -0.34492   0.18544   0.00000   0.00000
  16 2   H  1S         -0.48793   0.00000   0.00000   0.04626   0.26026
  17        2S         -0.03169   0.00000   0.00000  -0.13067   0.02091
  18 3   H  1S         -0.01331   0.00000   0.00000  -0.41629  -0.28368
  19        2S          0.07907   0.00000   0.00000  -0.05683  -0.04018
  20 4   C  1S          0.01142   0.00000   0.00000   0.05783   0.04284
  21        2S          0.20057   0.00000   0.00000   0.38262  -0.15812
  22        2PX        -0.12005   0.00000   0.00000   0.23603  -0.31028
  23        2PY         0.27444   0.00000   0.00000  -0.23732   0.06088
  24        2PZ         0.00000   0.08170  -0.03913   0.00000   0.00000
  25        3S         -0.68104   0.00000   0.00000  -1.54478  -1.32548
  26        3PX         0.17860   0.00000   0.00000  -0.02065  -0.86983
  27        3PY        -0.09717   0.00000   0.00000  -0.68520   0.54836
  28        3PZ         0.00000   0.17266  -0.08105   0.00000   0.00000
  29        4XX        -0.11165   0.00000   0.00000  -0.10846  -0.63061
  30        4YY        -0.27839   0.00000   0.00000  -0.27475   0.26362
  31        4ZZ         0.32266   0.00000   0.00000   0.53529   0.33730
  32        4XY        -0.23292   0.00000   0.00000  -0.32528   0.09331
  33        4XZ         0.00000   0.60805  -0.36483   0.00000   0.00000
  34        4YZ         0.00000  -0.25104   0.59673   0.00000   0.00000
  35 5   H  1S          0.33433   0.00000   0.00000   0.36588   0.19914
[...]
  69 9   H  1S          0.00036   0.00000  -0.00024  -0.00079  -0.00001
  70        2S          0.00377   0.00021  -0.00381  -0.01023   0.00010
  71 10  H  1S          0.00000   0.00000  -0.00026  -0.00025  -0.00053
  72        2S         -0.00001   0.00021  -0.00335  -0.00221  -0.00706
                          41        42        43        44        45
  41        2PZ         0.32134
  42        3S          0.00000   0.22719
  43        3PX         0.00000   0.00000   0.03045
  44        3PY         0.00000   0.00000   0.00000   0.04835
  45        3PZ         0.12098   0.00000   0.00000   0.00000   0.14041
  46        4XX         0.00000   0.00107   0.00000   0.00000   0.00000
  47        4YY         0.00000   0.00021   0.00000   0.00000   0.00000
  48        4ZZ         0.00000  -0.00718   0.00000   0.00000   0.00000
  49        4XY         0.00000   0.00000   0.00000   0.00000   0.00000
  50        4XZ         0.00000   0.00000   0.00000   0.00000   0.00000
  51        4YZ         0.00000   0.00000   0.00000   0.00000   0.00000
  52 7   H  1S          0.00000   0.04473   0.03113   0.00938   0.00000
  53        2S          0.00000   0.02707   0.02764   0.00960   0.00000
  54 8   C  1S          0.00000   0.00017  -0.00105  -0.00076   0.00000
  55        2S          0.00000   0.00299   0.01259   0.00780   0.00000
  56        2PX         0.00000   0.01689   0.00331   0.01096   0.00000
  57        2PY         0.00000   0.00527   0.00262  -0.00207   0.00000
  58        2PZ         0.03465   0.00000   0.00000   0.00000   0.04920
  59        3S          0.00000  -0.00982   0.01432   0.00665   0.00000
  60        3PX         0.00000   0.00702  -0.00175   0.00659   0.00000
  61        3PY         0.00000   0.00327   0.00240  -0.00196   0.00000
  62        3PZ         0.05449   0.00000   0.00000   0.00000   0.08737
  63        4XX         0.00000   0.00131  -0.00087   0.00069   0.00000
  64        4YY         0.00000  -0.00049   0.00040  -0.00054   0.00000
  65        4ZZ         0.00000  -0.00042  -0.00042  -0.00027   0.00000
  66        4XY         0.00000   0.00047   0.00007   0.00000   0.00000
  67        4XZ         0.00164   0.00000   0.00000   0.00000   0.00098
  68        4YZ         0.00059   0.00000   0.00000   0.00000   0.00035
  69 9   H  1S          0.00000  -0.00208  -0.00347  -0.00015   0.00000
  70        2S          0.00000  -0.00614  -0.01111  -0.00010   0.00000
  71 10  H  1S          0.00000  -0.00161   0.00051  -0.00132   0.00000
  72        2S          0.00000  -0.00305   0.00075  -0.00720   0.00000
                          46        47        48        49        50
  46        4XX         0.00123
  47        4YY        -0.00022   0.00124
  48        4ZZ        -0.00002   0.00008   0.00091
  49        4XY         0.00000   0.00000   0.00000   0.00146
  50        4XZ         0.00000   0.00000   0.00000   0.00000   0.00042
  51        4YZ         0.00000   0.00000   0.00000   0.00000   0.00000
  52 7   H  1S          0.00400  -0.00095  -0.00086   0.00367   0.00000
  53        2S          0.00390  -0.00163  -0.00092   0.00075   0.00000
  54 8   C  1S         -0.00012   0.00001   0.00000  -0.00018   0.00000
  55        2S          0.00141  -0.00046  -0.00039   0.00174   0.00000
  56        2PX        -0.00150  -0.00022  -0.00067   0.00218   0.00000
  57        2PY         0.00228  -0.00038  -0.00024  -0.00005   0.00000
  58        2PZ         0.00000   0.00000   0.00000   0.00000   0.00178
  59        3S          0.00131  -0.00081  -0.00068   0.00079   0.00000
  60        3PX        -0.00071  -0.00021  -0.00051   0.00011   0.00000
  61        3PY         0.00078  -0.00076  -0.00021   0.00003   0.00000
  62        3PZ         0.00000   0.00000   0.00000   0.00000   0.00123
  63        4XX         0.00025  -0.00022  -0.00004  -0.00019   0.00000
  64        4YY        -0.00021   0.00005   0.00001   0.00002   0.00000
  65        4ZZ        -0.00003   0.00001   0.00002  -0.00004   0.00000
  66        4XY        -0.00018   0.00001  -0.00003   0.00003   0.00000
  67        4XZ         0.00000   0.00000   0.00000   0.00000   0.00008
  68        4YZ         0.00000   0.00000   0.00000   0.00000   0.00003
  69 9   H  1S          0.00017  -0.00001   0.00000  -0.00001   0.00000
  70        2S          0.00116  -0.00038   0.00005  -0.00005   0.00000
  71 10  H  1S         -0.00004   0.00012   0.00000   0.00007   0.00000
  72        2S         -0.00061   0.00101   0.00008   0.00015   0.00000
                          51        52        53        54        55
  51        4YZ         0.00053
  52 7   H  1S          0.00000   0.21849
  53        2S          0.00000   0.11089   0.14934
  54 8   C  1S          0.00000   0.00000   0.00027   2.05320
  55        2S          0.00000  -0.00026  -0.00417  -0.01389   0.32181
  56        2PX         0.00000  -0.00082  -0.01068   0.00000   0.00000
  57        2PY         0.00000  -0.00001  -0.00007   0.00000   0.00000
  58        2PZ         0.00079   0.00000   0.00000   0.00000   0.00000
  59        3S          0.00000  -0.00404  -0.01363  -0.03055   0.22197
  60        3PX         0.00000  -0.00405  -0.01420   0.00000   0.00000
  61        3PY         0.00000  -0.00015  -0.00029   0.00000   0.00000
  62        3PZ         0.00059   0.00000   0.00000   0.00000   0.00000
  63        4XX         0.00000   0.00018   0.00110  -0.00154   0.00060
  64        4YY         0.00000  -0.00001  -0.00037  -0.00169   0.00322
  65        4ZZ         0.00000   0.00000   0.00010  -0.00089  -0.01202
  66        4XY         0.00000  -0.00001  -0.00005   0.00000   0.00000
  67        4XZ         0.00003   0.00000   0.00000   0.00000   0.00000
  68        4YZ         0.00000   0.00000   0.00000   0.00000   0.00000
  69 9   H  1S          0.00000   0.00000   0.00043  -0.00221   0.03446
  70        2S          0.00000   0.00047   0.00484  -0.00130   0.01758
  71 10  H  1S          0.00000  -0.00002  -0.00094  -0.00220   0.03422
  72        2S          0.00000  -0.00116  -0.00459  -0.00139   0.01817
                          56        57        58        59        60
  56        2PX         0.41865
  57        2PY         0.00000   0.42086
  58        2PZ         0.00000   0.00000   0.32616
  59        3S          0.00000   0.00000   0.00000   0.24830
  60        3PX         0.08590   0.00000   0.00000   0.00000   0.05691
  61        3PY         0.00000   0.08813   0.00000   0.00000   0.00000
  62        3PZ         0.00000   0.00000   0.14121   0.00000   0.00000
  63        4XX         0.00000   0.00000   0.00000   0.00100   0.00000
  64        4YY         0.00000   0.00000   0.00000   0.00265   0.00000
  65        4ZZ         0.00000   0.00000   0.00000  -0.00839   0.00000
  66        4XY         0.00000   0.00000   0.00000   0.00000   0.00000
  67        4XZ         0.00000   0.00000   0.00000   0.00000   0.00000
  68        4YZ         0.00000   0.00000   0.00000   0.00000   0.00000
  69 9   H  1S          0.07693   0.02415   0.00000   0.04139   0.03843
  70        2S          0.04499   0.01422   0.00000   0.02283   0.03448
  71 10  H  1S         -0.00001   0.10164   0.00000   0.03522  -0.00005
  72        2S          0.00001   0.05954   0.00000   0.01480  -0.00003
                          61        62        63        64        65
  61        3PY         0.05816
  62        3PZ         0.00000   0.18973
  63        4XX         0.00000   0.00000   0.00130
  64        4YY         0.00000   0.00000  -0.00028   0.00160
  65        4ZZ         0.00000   0.00000   0.00003  -0.00004   0.00101
  66        4XY         0.00000   0.00000   0.00000   0.00000   0.00000
  67        4XZ         0.00000   0.00000   0.00000   0.00000   0.00000
  68        4YZ         0.00000   0.00000   0.00000   0.00000   0.00000
  69 9   H  1S          0.01024   0.00000   0.00392  -0.00084  -0.00076
  70        2S          0.00979   0.00000   0.00390  -0.00212  -0.00068
  71 10  H  1S          0.05123   0.00000  -0.00127   0.00754  -0.00076
  72        2S          0.04685   0.00000  -0.00353   0.00579  -0.00076
                          66        67        68        69        70
  66        4XY         0.00110
  67        4XZ         0.00000   0.00036
  68        4YZ         0.00000   0.00000   0.00013
  69 9   H  1S          0.00331   0.00000   0.00000   0.21590
  70        2S          0.00063   0.00000   0.00000   0.10537   0.13407
  71 10  H  1S          0.00000   0.00000   0.00000  -0.00052  -0.00792
  72        2S          0.00000   0.00000   0.00000  -0.00806  -0.02409
                          71        72
  71 10  H  1S          0.21582
  72        2S          0.10550   0.13308
     Gross orbital populations:
                           1
   1 1   C  1S          1.99171
   2        2S          0.70553
   3        2PX         0.75690
   4        2PY         0.75110
   5        2PZ         0.55298
   6        3S          0.58931
   7        3PX         0.23916
   8        3PY         0.27768
   9        3PZ         0.46793
  10        4XX         0.00800
  11        4YY         0.01478
  12        4ZZ        -0.02580
  13        4XY         0.00943
  14        4XZ         0.00312
  15        4YZ         0.00113
  16 2   H  1S          0.53451
  17        2S          0.32130
  18 3   H  1S          0.53442
  19        2S          0.32255
  20 4   C  1S          1.99182
  21        2S          0.71363
  22        2PX         0.77028
  23        2PY         0.70976
  24        2PZ         0.54818
  25        3S          0.52177
  26        3PX         0.17887
  27        3PY         0.21571
  28        3PZ         0.41855
  29        4XX         0.00992
  30        4YY         0.00314
  31        4ZZ        -0.02433
  32        4XY         0.01223
  33        4XZ         0.00365
  34        4YZ         0.00416
  35 5   H  1S          0.53745
  36        2S          0.32878
  37 6   C  1S          1.99182
  38        2S          0.71364
  39        2PX         0.77000
  40        2PY         0.71007
  41        2PZ         0.54810
  42        3S          0.52174
  43        3PX         0.18002
  44        3PY         0.21485
  45        3PZ         0.41871
  46        4XX         0.00980
  47        4YY         0.00322
  48        4ZZ        -0.02434
  49        4XY         0.01227
  50        4XZ         0.00363
  51        4YZ         0.00420
  52 7   H  1S          0.53758
  53        2S          0.32904
  54 8   C  1S          1.99171
  55        2S          0.70545
  56        2PX         0.75683
  57        2PY         0.75102
  58        2PZ         0.55317
  59        3S          0.58903
  60        3PX         0.23956
  61        3PY         0.27754
  62        3PZ         0.46824
  63        4XX         0.00808
  64        4YY         0.01475
  65        4ZZ        -0.02581
  66        4XY         0.00937
  67        4XZ         0.00310
  68        4YZ         0.00115
  69 9   H  1S          0.53452
  70        2S          0.32162
  71 10  H  1S          0.53441
  72        2S          0.32255
          Condensed to atoms (all electrons):
              1          2          3          4          5          6
     1  C    5.049792   0.373388   0.364960   0.636549  -0.050937  -0.029519
     2  H    0.373388   0.560273  -0.040541  -0.036840   0.005686  -0.011194
     3  H    0.364960  -0.040541   0.559990  -0.024764  -0.006581   0.004120
     4  C    0.636549  -0.036840  -0.024764   4.784777   0.368220   0.429633
     5  H   -0.050937   0.005686  -0.006581   0.368220   0.588875  -0.043436
     6  C   -0.029519  -0.011194   0.004120   0.429633  -0.043436   4.784495
     7  H   -0.003999   0.004606  -0.000001  -0.043582   0.003810   0.368313
     8  C    0.002521   0.000421  -0.000206  -0.029621  -0.003954   0.636776
     9  H    0.000414   0.000015  -0.000006  -0.011128   0.004549  -0.036881
    10  H   -0.000205  -0.000007   0.000003   0.004120  -0.000006  -0.024566
              7          8          9         10
     1  C   -0.003999   0.002521   0.000414  -0.000205
     2  H    0.004606   0.000421   0.000015  -0.000007
     3  H   -0.000001  -0.000206  -0.000006   0.000003
     4  C   -0.043582  -0.029621  -0.011128   0.004120
     5  H    0.003810  -0.003954   0.004549  -0.000006
     6  C    0.368313   0.636776  -0.036881  -0.024566
     7  H    0.589623  -0.051166   0.005731  -0.006710
     8  C   -0.051166   5.050061   0.373327   0.365027
     9  H    0.005731   0.373327   0.560713  -0.040588
    10  H   -0.006710   0.365027  -0.040588   0.559899
 Mulliken atomic charges:
              1
     1  C   -0.342964
     2  H    0.144193
     3  H    0.143025
     4  C   -0.077364
     5  H    0.133775
     6  C   -0.077740
     7  H    0.133375
     8  C   -0.343187
     9  H    0.143854
    10  H    0.143033
 Sum of Mulliken atomic charges =   0.00000
 Mulliken charges with hydrogens summed into heavy atoms:
              1
     1  C   -0.055745
     4  C    0.056410
     6  C    0.055635
     8  C   -0.056300
 Sum of Mulliken charges with hydrogens summed into heavy atoms =   0.00000
 Electronic spatial extent (au):  <R**2>=            339.7999
 Charge=              0.0000 electrons
 Dipole moment (field-independent basis, Debye):
    X=              0.0021    Y=             -0.0041    Z=              0.0000  Tot=              0.0046
 Quadrupole moment (field-independent basis, Debye-Ang):
   XX=            -22.6652   YY=            -22.6676   ZZ=            -28.0289
   XY=              0.5307   XZ=              0.0000   YZ=              0.0000
 Traceless Quadrupole moment (field-independent basis, Debye-Ang):
   XX=              1.7888   YY=              1.7863   ZZ=             -3.5750
   XY=              0.5307   XZ=              0.0000   YZ=              0.0000
 Octapole moment (field-independent basis, Debye-Ang**2):
  XXX=              0.0044  YYY=              0.0052  ZZZ=              0.0000  XYY=              0.0069
  XXY=             -0.0174  XXZ=              0.0000  XZZ=              0.0022  YZZ=             -0.0041
  YYZ=              0.0000  XYZ=              0.0000
 Hexadecapole moment (field-independent basis, Debye-Ang**3):
 XXXX=           -157.6160 YYYY=           -244.0471 ZZZZ=            -29.2501 XXXY=             68.9971
 XXXZ=              0.0000 YYYX=             63.9302 YYYZ=              0.0000 ZZZX=              0.0000
 ZZZY=              0.0000 XXYY=            -70.5474 XXZZ=            -35.4978 YYZZ=            -55.0032
 XXYZ=              0.0000 YYXZ=              0.0000 ZZXY=             26.0253
 N-N= 1.024963777855D+02 E-N=-5.653969022328D+02  KE= 1.543426091370D+02
 Symmetry A'   KE= 1.501621324025D+02
 Symmetry A"   KE= 4.180476734433D+00
 Orbital energies and kinetic energies (alpha):
                                 1                 2
   1         O               -10.196921         15.880253
   2         O               -10.196620         15.884021
   3         O               -10.180392         15.879231
   4         O               -10.180187         15.879232
   5         O                -0.790313          1.493707
   6         O                -0.728264          1.552401
   7         O                -0.594666          1.404141
   8         O                -0.557182          1.168362
   9         O                -0.463952          1.027003
  10         O                -0.456900          1.179181
  11         O                -0.392042          1.135204
  12         O                -0.387476          1.348537
  13         O                -0.345472          1.249793
  14         O                -0.309263          0.977945
  15         O                -0.228516          1.112294
  16         V                -0.018117          1.267410
  17         V                 0.070329          1.357896
  18         V                 0.121834          0.884629
  19         V                 0.128620          0.924511
  20         V                 0.131251          0.983322
  21         V                 0.180549          1.398682
  22         V                 0.185629          1.092140
  23         V                 0.212444          1.023402
  24         V                 0.316993          1.506514
  25         V                 0.323388          1.030543
  26         V                 0.373097          1.471948
  27         V                 0.470834          1.840959
  28         V                 0.522287          1.514840
  29         V                 0.535071          2.003056
  30         V                 0.580381          2.128253
  31         V                 0.605031          1.860079
  32         V                 0.616344          1.577566
  33         V                 0.654521          2.160465
  34         V                 0.667902          2.157482
  35         V                 0.673012          2.245348
  36         V                 0.687144          2.629183
  37         V                 0.858333          2.816977
  38         V                 0.869491          2.769202
  39         V                 0.876604          2.618392
  40         V                 0.897519          2.671969
  41         V                 0.933889          2.554059
  42         V                 0.942423          2.701511
  43         V                 0.969413          2.547027
  44         V                 1.067320          2.258016
  45         V                 1.093606          2.200586
  46         V                 1.136263          2.111117
  47         V                 1.314883          2.434020
  48         V                 1.351153          2.476285
  49         V                 1.359126          2.489834
  50         V                 1.433095          2.607901
  51         V                 1.526711          2.679888
  52         V                 1.653206          2.773624
  53         V                 1.752701          2.901186
  54         V                 1.757599          3.128099
  55         V                 1.902775          3.219071
  56         V                 1.963416          3.332187
  57         V                 2.056661          3.397321
  58         V                 2.100332          3.272222
  59         V                 2.132676          3.491623
  60         V                 2.161673          3.554642
  61         V                 2.291345          3.678311
  62         V                 2.387884          3.622317
  63         V                 2.406419          3.637161
  64         V                 2.407428          3.876569
  65         V                 2.592541          4.296681
  66         V                 2.703896          4.569287
  67         V                 2.856270          4.509523
  68         V                 2.915427          4.660840
  69         V                 4.060927         10.077891
  70         V                 4.130186         10.097041
  71         V                 4.214227         10.005933
  72         V                 4.427434         10.088688
 Total kinetic energy from orbitals= 1.543426091370D+02
 1\1\GINC-NISER-THINKCENTRE-M93P\SP\RB3LYP\6-31G(d)\C4H6\STUDENT\02-Mar
 -2021\0\\# pop=full b3lyp/6-31g* geom=connectivity\\Title Card Require
 d\\0,1\C,0,-4.15204694,-0.70175438,0.\H,0,-3.6188832,-1.6294593,0.\H,0
 ,-5.22204694,-0.70175438,0.\C,0,-3.47677263,0.47322292,0.\H,0,-4.00993
 638,1.40092784,0.\C,0,-1.93677263,0.47322292,0.\H,0,-1.40360889,-0.454
 482,0.\C,0,-1.25452923,1.6441674,0.\H,0,-1.7821717,2.57502369,0.\H,0,-
 0.18454812,1.63781011,0.\\Version=EM64L-G09RevC.01\State=1-A'\HF=-155.
 9849009\RMSD=7.367e-09\Dipole=-0.0016218,-0.0008293,0.\Quadrupole=1.32
 92552,1.3286801,-2.6579354,-0.3945314,0.,0.\PG=CS [SG(C4H6)]\\@


 THE BEST WAY TO CONVINCE A FOOL THAT HE IS WRONG 
 IS TO LET HIM HAVE HIS OWN WAY.

                                         JOSH BILLINGS
 Job cpu time:  0 days  0 hours  0 minutes  2.9 seconds.
 File lengths (MBytes):  RWF=      5 Int=      0 D2E=      0 Chk=      2 Scr=      1
 Normal termination of Gaussian 09 at Tue Mar  2 12:14:43 2021.
