 Entering Gaussian System, Link 0=g09
 Input=hexa1.com
 Output=hexa1.log
 Initial command:
 /home/student/g09/l1.exe /home/student/singh/Gau-21372.inp -scrdir=/home/student/singh/
 Entering Link 1 = /home/student/g09/l1.exe PID=     21375.
  
 Copyright (c) 1988,1990,1992,1993,1995,1998,2003,2009,2011,
            Gaussian, Inc.  All Rights Reserved.
  
 This is part of the Gaussian(R) 09 program.  It is based on
 the Gaussian(R) 03 system (copyright 2003, Gaussian, Inc.),
 the Gaussian(R) 98 system (copyright 1998, Gaussian, Inc.),
 the Gaussian(R) 94 system (copyright 1995, Gaussian, Inc.),
 the Gaussian 92(TM) system (copyright 1992, Gaussian, Inc.),
 the Gaussian 90(TM) system (copyright 1990, Gaussian, Inc.),
 the Gaussian 88(TM) system (copyright 1988, Gaussian, Inc.),
 the Gaussian 86(TM) system (copyright 1986, Carnegie Mellon
 University), and the Gaussian 82(TM) system (copyright 1983,
 Carnegie Mellon University). Gaussian is a federally registered
 trademark of Gaussian, Inc.
  
 This software contains proprietary and confidential information,
 including trade secrets, belonging to Gaussian, Inc.
  
 This software is provided under written license and may be
 used, copied, transmitted, or stored only in accord with that
 written license.
  
 The following legend is applicable only to US Government
 contracts under FAR:
  
                    RESTRICTED RIGHTS LEGEND
  
 Use, reproduction and disclosure by the US Government is
 subject to restrictions as set forth in subparagraphs (a)
 and (c) of the Commercial Computer Software - Restricted
 Rights clause in FAR 52.227-19.
  
 Gaussian, Inc.
 340 Quinnipiac St., Bldg. 40, Wallingford CT 06492
  
  
 ---------------------------------------------------------------
 Warning -- This program may not be used in any manner that
 competes with the business of Gaussian, Inc. or will provide
 assistance to any competitor of Gaussian, Inc.  The licensee
 of this program is prohibited from giving any competitor of
 Gaussian, Inc. access to this program.  By using this program,
 the user acknowledges that Gaussian, Inc. is engaged in the
 business of creating and licensing software in the field of
 computational chemistry and represents and warrants to the
 licensee that it is not a competitor of Gaussian, Inc. and that
 it will not use this program in any manner prohibited above.
 ---------------------------------------------------------------
  

 Cite this work as:
 Gaussian 09, Revision C.01,
 M. J. Frisch, G. W. Trucks, H. B. Schlegel, G. E. Scuseria, 
 M. A. Robb, J. R. Cheeseman, G. Scalmani, V. Barone, B. Mennucci, 
 G. A. Petersson, H. Nakatsuji, M. Caricato, X. Li, H. P. Hratchian, 
 A. F. Izmaylov, J. Bloino, G. Zheng, J. L. Sonnenberg, M. Hada, 
 M. Ehara, K. Toyota, R. Fukuda, J. Hasegawa, M. Ishida, T. Nakajima, 
 Y. Honda, O. Kitao, H. Nakai, T. Vreven, J. A. Montgomery, Jr., 
 J. E. Peralta, F. Ogliaro, M. Bearpark, J. J. Heyd, E. Brothers, 
 K. N. Kudin, V. N. Staroverov, T. Keith, R. Kobayashi, J. Normand, 
 K. Raghavachari, A. Rendell, J. C. Burant, S. S. Iyengar, J. Tomasi, 
 M. Cossi, N. Rega, J. M. Millam, M. Klene, J. E. Knox, J. B. Cross, 
 V. Bakken, C. Adamo, J. Jaramillo, R. Gomperts, R. E. Stratmann, 
 O. Yazyev, A. J. Austin, R. Cammi, C. Pomelli, J. W. Ochterski, 
 R. L. Martin, K. Morokuma, V. G. Zakrzewski, G. A. Voth, 
 P. Salvador, J. J. Dannenberg, S. Dapprich, A. D. Daniels, 
 O. Farkas, J. B. Foresman, J. V. Ortiz, J. Cioslowski, 
 and D. J. Fox, Gaussian, Inc., Wallingford CT, 2010.
 
 ******************************************
 Gaussian 09:  EM64L-G09RevC.01 23-Sep-2011
                 2-Mar-2021 
 ******************************************
 %chk=hexa1.chk
 ----------------------------------------
 # pop=full b3lyp/6-31* geom=connectivity
 ----------------------------------------
 1/38=1,57=2/1;
 2/12=2,17=6,18=5,40=1/2;
 3/5=1,6=6,7=1,11=2,16=1,25=1,30=1,74=-5/1,2,3;
 4//1;
 5/5=2,38=5/2;
 6/7=3,28=1/1;
 99/5=1,9=1/99;
 -------------------
 Title Card Required
 -------------------
 Charge =  0 Multiplicity = 1
 Symbolic Z-Matrix:
 C                    -3.85965  -1.19883   0. 
 H                    -3.32649  -2.12654   0. 
 H                    -4.92965  -1.19883   0. 
 C                    -3.18437  -0.02385   0. 
 H                    -3.71754   0.90385   0. 
 C                    -1.64437  -0.02385   0. 
 H                    -1.11121  -0.95156   0. 
 C                    -0.96213   1.14709   0. 
 H                    -1.48977   2.07795   0. 
 C                     0.57784   1.13794   0. 
 H                     1.10548   0.20709   0. 
 C                     1.26703   2.30481   0. 
 H                     0.74493   3.23879   0. 
 H                     2.33695   2.2921    0. 
 
                          Input orientation:                          
 ---------------------------------------------------------------------
 Center     Atomic      Atomic             Coordinates (Angstroms)
 Number     Number       Type             X           Y           Z
 ---------------------------------------------------------------------
      1          6           0       -3.859649   -1.198830    0.000000
      2          1           0       -3.326486   -2.126535    0.000000
      3          1           0       -4.929649   -1.198830    0.000000
      4          6           0       -3.184375   -0.023853    0.000000
      5          1           0       -3.717539    0.903852    0.000000
      6          6           0       -1.644375   -0.023853    0.000000
      7          1           0       -1.111211   -0.951558    0.000000
      8          6           0       -0.962132    1.147091    0.000000
      9          1           0       -1.489774    2.077948    0.000000
     10          6           0        0.577841    1.137942    0.000000
     11          1           0        1.105484    0.207085    0.000000
     12          6           0        1.267030    2.304812    0.000000
     13          1           0        0.744927    3.238787    0.000000
     14          1           0        2.336954    2.292098    0.000000
 ---------------------------------------------------------------------
                    Distance matrix (angstroms):
                    1          2          3          4          5
     1  C    0.000000
     2  H    1.070000   0.000000
     3  H    1.070000   1.852234   0.000000
     4  C    1.355200   2.107479   2.103938   0.000000
     5  H    2.107479   3.055514   2.427032   1.070000   0.000000
     6  C    2.507591   2.692725   3.489068   1.540000   2.271265
     7  H    2.759539   2.507591   3.826436   2.271265   3.199295
     8  C    3.728131   4.038168   4.609181   2.511867   2.766123
     9  H    4.043956   4.588157   4.750791   2.699859   2.518221
    10  C    5.015160   5.089261   5.982721   3.937517   4.301754
    11  H    5.160343   5.008806   6.196727   4.296070   4.873092
    12  C    6.209537   6.382572   7.118591   5.023712   5.177703
    13  H    6.394886   6.735212   7.203698   5.107273   5.036420
    14  H    7.112276   7.183235   8.061644   5.987379   6.211611
                    6          7          8          9         10
     6  C    0.000000
     7  H    1.070000   0.000000
     8  C    1.355200   2.103938   0.000000
     9  H    2.107479   3.053066   1.070000   0.000000
    10  C    2.507591   2.686802   1.540000   2.271265   0.000000
    11  H    2.759539   2.501238   2.271265   3.199295   1.070000
    12  C    3.728131   4.032366   2.511867   2.766123   1.355200
    13  H    4.043956   4.583038   2.699859   2.518221   2.107479
    14  H    4.605932   4.734041   3.492135   3.832716   2.103938
                   11         12         13         14
    11  H    0.000000
    12  C    2.103938   0.000000
    13  H    3.053066   1.070000   0.000000
    14  H    2.421527   1.070000   1.852234   0.000000
 Stoichiometry    C6H8
 Framework group  CS[SG(C6H8)]
 Deg. of freedom    25
 Full point group                 CS      NOp   2
 Largest Abelian subgroup         CS      NOp   2
 Largest concise Abelian subgroup C1      NOp   1
                         Standard orientation:                         
 ---------------------------------------------------------------------
 Center     Atomic      Atomic             Coordinates (Angstroms)
 Number     Number       Type             X           Y           Z
 ---------------------------------------------------------------------
      1          6           0       -1.307446    2.814682    0.000000
      2          1           0       -0.375989    3.341262    0.000000
      3          1           0       -2.228129    3.359882    0.000000
      4          6           0       -1.325095    1.459597    0.000000
      5          1           0       -2.256552    0.933016    0.000000
      6          6           0        0.000000    0.674916    0.000000
      7          1           0        0.931457    1.201497    0.000000
      8          6           0       -0.009597   -0.680250    0.000000
      9          1           0       -0.937910   -1.212355    0.000000
     10          6           0        1.320136   -1.457043    0.000000
     11          1           0        2.248449   -0.924938    0.000000
     12          6           0        1.318591   -2.812243    0.000000
     13          1           0        0.393456   -3.349854    0.000000
     14          1           0        2.245687   -3.346464    0.000000
 ---------------------------------------------------------------------
 Rotational constants (GHZ):     24.3012217      1.3063230      1.2396833
 Standard basis: 6-31G(d) (6D, 7F)
 There are    82 symmetry adapted basis functions of A'  symmetry.
 There are    24 symmetry adapted basis functions of A"  symmetry.
 Integral buffers will be    131072 words long.
 Raffenetti 2 integral format.
 Two-electron integral symmetry is turned on.
   106 basis functions,   200 primitive gaussians,   106 cartesian basis functions
    22 alpha electrons       22 beta electrons
       nuclear repulsion energy       191.1474013585 Hartrees.
 NAtoms=   14 NActive=   14 NUniq=   14 SFac= 1.00D+00 NAtFMM=   60 NAOKFM=F Big=F
 One-electron integrals computed using PRISM.
 NBasis=   106 RedAO= T  NBF=    82    24
 NBsUse=   106 1.00D-06 NBFU=    82    24
 Harris functional with IExCor=  402 diagonalized for initial guess.
 ExpMin= 1.61D-01 ExpMax= 3.05D+03 ExpMxC= 4.57D+02 IAcc=1 IRadAn=         1 AccDes= 0.00D+00
 HarFok:  IExCor=  402 AccDes= 0.00D+00 IRadAn=         1 IDoV= 1
 ScaDFX=  1.000000  1.000000  1.000000  1.000000
 FoFCou: FMM=F IPFlag=           0 FMFlag=      100000 FMFlg1=           0
         NFxFlg=           0 DoJE=T BraDBF=F KetDBF=T FulRan=T
         Omega=  0.000000  0.000000  1.000000  0.000000  0.000000 ICntrl=     500 IOpCl=  0
         NMat0=    1 NMatS0=    1 NMatT0=    0 NMatD0=    1 NMtDS0=    0 NMtDT0=    0
         I1Cent=           4 NGrid=           0.
 Petite list used in FoFCou.
 Initial guess orbital symmetries:
       Occupied  (A') (A') (A') (A') (A') (A') (A') (A') (A') (A')
                 (A') (A') (A') (A') (A') (A') (A') (A') (A') (A")
                 (A") (A")
       Virtual   (A") (A") (A") (A') (A') (A') (A') (A') (A') (A')
                 (A') (A') (A') (A') (A') (A') (A') (A') (A") (A")
                 (A') (A") (A') (A') (A") (A') (A') (A') (A") (A")
                 (A') (A') (A') (A') (A') (A') (A') (A') (A') (A')
                 (A') (A') (A') (A') (A') (A') (A") (A") (A') (A")
                 (A') (A") (A") (A") (A") (A') (A') (A') (A') (A")
                 (A') (A') (A') (A') (A") (A') (A') (A') (A") (A")
                 (A") (A') (A') (A') (A') (A') (A') (A') (A') (A')
                 (A') (A') (A') (A')
 The electronic state of the initial guess is 1-A'.
 Requested convergence on RMS density matrix=1.00D-08 within 128 cycles.
 Requested convergence on MAX density matrix=1.00D-06.
 Requested convergence on             energy=1.00D-06.
 No special actions if energy rises.
 Keep R1 ints in memory in canonical form, NReq=17180070.
 Integral accuracy reduced to 1.0D-05 until final iterations.
 Initial convergence to 1.0D-05 achieved.  Increase integral accuracy.
 SCF Done:  E(RB3LYP) =  -233.384822068     A.U. after   13 cycles
             Convg  =    0.5493D-08             -V/T =  2.0108

 **********************************************************************

            Population analysis using the SCF density.

 **********************************************************************

 Orbital symmetries:
       Occupied  (A') (A') (A') (A') (A') (A') (A') (A') (A') (A')
                 (A') (A') (A') (A') (A') (A') (A') (A') (A') (A")
                 (A") (A")
       Virtual   (A") (A") (A") (A') (A') (A') (A') (A') (A') (A')
                 (A') (A') (A') (A') (A') (A') (A') (A') (A") (A")
                 (A') (A') (A") (A") (A') (A') (A') (A') (A") (A")
                 (A') (A') (A') (A') (A') (A') (A') (A') (A') (A')
                 (A') (A') (A') (A') (A') (A') (A') (A") (A") (A')
                 (A") (A") (A") (A") (A") (A') (A') (A') (A') (A")
                 (A') (A') (A') (A') (A") (A') (A') (A') (A") (A")
                 (A") (A') (A') (A') (A') (A') (A') (A') (A') (A')
                 (A') (A') (A') (A')
 The electronic state is 1-A'.
 Alpha  occ. eigenvalues --  -10.19760 -10.19733 -10.19568 -10.19494 -10.18014
 Alpha  occ. eigenvalues --  -10.17984  -0.80343  -0.76594  -0.71616  -0.60345
 Alpha  occ. eigenvalues --   -0.56277  -0.55647  -0.47596  -0.45973  -0.42201
 Alpha  occ. eigenvalues --   -0.40381  -0.38280  -0.37129  -0.33622  -0.32509
 Alpha  occ. eigenvalues --   -0.27751  -0.21168
 Alpha virt. eigenvalues --   -0.03461   0.03925   0.08454   0.10810   0.12561
 Alpha virt. eigenvalues --    0.13260   0.14501   0.15699   0.17645   0.19848
 Alpha virt. eigenvalues --    0.20572   0.29502   0.32629   0.32767   0.35991
 Alpha virt. eigenvalues --    0.39112   0.47928   0.49313   0.52905   0.55662
 Alpha virt. eigenvalues --    0.56887   0.60466   0.60484   0.61051   0.61298
 Alpha virt. eigenvalues --    0.64302   0.67021   0.68925   0.69524   0.70393
 Alpha virt. eigenvalues --    0.83640   0.86419   0.87303   0.88256   0.89127
 Alpha virt. eigenvalues --    0.89330   0.93066   0.94482   0.97495   0.97933
 Alpha virt. eigenvalues --    1.05539   1.06550   1.08889   1.13850   1.25143
 Alpha virt. eigenvalues --    1.28144   1.32685   1.34876   1.36196   1.43328
 Alpha virt. eigenvalues --    1.43890   1.49661   1.58353   1.68998   1.73667
 Alpha virt. eigenvalues --    1.76136   1.76336   1.91294   1.98247   2.00001
 Alpha virt. eigenvalues --    2.01477   2.01842   2.12253   2.16730   2.17273
 Alpha virt. eigenvalues --    2.23021   2.30079   2.32046   2.38133   2.41720
 Alpha virt. eigenvalues --    2.41858   2.43975   2.63276   2.73419   2.78562
 Alpha virt. eigenvalues --    2.79914   2.96793   2.97068   4.05599   4.08067
 Alpha virt. eigenvalues --    4.14814   4.19807   4.35088   4.47957
     Molecular Orbital Coefficients:
                           1         2         3         4         5
                           O         O         O         O         O
     Eigenvalues --   -10.19760 -10.19733 -10.19568 -10.19494 -10.18014
   1 1   C  1S          0.02103  -0.00009  -0.00098  -0.00075   0.99249
   2        2S          0.00052  -0.00003  -0.00013  -0.00005   0.04937
   3        2PX        -0.00002   0.00001  -0.00003   0.00000   0.00002
   4        2PY         0.00034  -0.00001   0.00002   0.00001   0.00001
   5        2PZ         0.00000   0.00000   0.00000   0.00000   0.00000
   6        3S          0.00488   0.00045   0.00001  -0.00035  -0.01343
   7        3PX         0.00071  -0.00015   0.00007  -0.00042  -0.00013
   8        3PY        -0.00204  -0.00023  -0.00019   0.00023   0.00122
   9        3PZ         0.00000   0.00000   0.00000   0.00000   0.00000
  10        4XX        -0.00039   0.00000   0.00004   0.00004  -0.00941
  11        4YY        -0.00052   0.00002   0.00007   0.00004  -0.00928
  12        4ZZ        -0.00033  -0.00001  -0.00004  -0.00001  -0.00978
  13        4XY        -0.00003   0.00000   0.00000   0.00002   0.00000
  14        4XZ         0.00000   0.00000   0.00000   0.00000   0.00000
  15        4YZ         0.00000   0.00000   0.00000   0.00000   0.00000
  16 2   H  1S         -0.00015   0.00000  -0.00004   0.00005  -0.00033
  17        2S         -0.00038   0.00009   0.00008   0.00005   0.00228
  18 3   H  1S         -0.00004  -0.00002   0.00000  -0.00003  -0.00037
  19        2S          0.00021  -0.00003   0.00019  -0.00011   0.00216
  20 4   C  1S          0.99154  -0.00337  -0.03668  -0.02738  -0.02151
  21        2S          0.04904  -0.00021  -0.00198  -0.00146  -0.00156
  22        2PX         0.00005  -0.00001  -0.00013  -0.00015  -0.00001
  23        2PY        -0.00001   0.00003   0.00006   0.00003  -0.00041
  24        2PZ         0.00000   0.00000   0.00000   0.00000   0.00000
  25        3S         -0.01472   0.00017   0.00317   0.00356   0.00512
  26        3PX        -0.00168   0.00026   0.00096   0.00134   0.00003
  27        3PY        -0.00091  -0.00066  -0.00093  -0.00081   0.00199
  28        3PZ         0.00000   0.00000   0.00000   0.00000   0.00000
  29        4XX        -0.00929   0.00004   0.00004  -0.00010  -0.00003
  30        4YY        -0.00905   0.00002   0.00018   0.00005  -0.00011
  31        4ZZ        -0.00947   0.00001   0.00023   0.00015   0.00007
  32        4XY         0.00010  -0.00002   0.00009   0.00012   0.00000
  33        4XZ         0.00000   0.00000   0.00000   0.00000   0.00000
  34        4YZ         0.00000   0.00000   0.00000   0.00000   0.00000
  35 5   H  1S         -0.00042  -0.00005  -0.00006  -0.00006  -0.00006
  36        2S          0.00177   0.00001  -0.00033  -0.00007  -0.00014
  37 6   C  1S          0.04505   0.00880   0.69733   0.70521   0.00025
  38        2S          0.00201   0.00037   0.03419   0.03539  -0.00004
  39        2PX         0.00022  -0.00006  -0.00003  -0.00005  -0.00002
  40        2PY        -0.00009   0.00004   0.00025  -0.00029  -0.00006
  41        2PZ         0.00000   0.00000   0.00000   0.00000   0.00000
  42        3S          0.00399  -0.00048  -0.00680  -0.01538  -0.00085
  43        3PX        -0.00155   0.00035   0.00144   0.00086   0.00034
  44        3PY         0.00115   0.00005  -0.00083   0.00274   0.00072
  45        3PZ         0.00000   0.00000   0.00000   0.00000   0.00000
  46        4XX        -0.00088  -0.00007  -0.00667  -0.00642   0.00006
  47        4YY        -0.00066  -0.00004  -0.00660  -0.00623   0.00000
  48        4ZZ        -0.00060  -0.00012  -0.00676  -0.00664  -0.00002
  49        4XY         0.00014   0.00003   0.00003   0.00008  -0.00003
  50        4XZ         0.00000   0.00000   0.00000   0.00000   0.00000
  51        4YZ         0.00000   0.00000   0.00000   0.00000   0.00000
  52 7   H  1S         -0.00011  -0.00004  -0.00035  -0.00022  -0.00004
  53        2S         -0.00016  -0.00013   0.00106   0.00151  -0.00029
  54 8   C  1S          0.00696   0.05169   0.70412  -0.69799   0.00000
  55        2S          0.00029   0.00234   0.03454  -0.03504  -0.00006
  56        2PX         0.00006  -0.00022   0.00004  -0.00006   0.00000
  57        2PY        -0.00003   0.00009  -0.00025  -0.00029   0.00000
  58        2PZ         0.00000   0.00000   0.00000   0.00000   0.00000
  59        3S         -0.00049   0.00386  -0.00702   0.01533   0.00080
  60        3PX        -0.00033   0.00153  -0.00148   0.00087  -0.00028
  61        3PY        -0.00009  -0.00116   0.00079   0.00274   0.00070
  62        3PZ         0.00000   0.00000   0.00000   0.00000   0.00000
  63        4XX        -0.00005  -0.00095  -0.00673   0.00635  -0.00001
  64        4YY        -0.00003  -0.00072  -0.00666   0.00616   0.00003
  65        4ZZ        -0.00010  -0.00066  -0.00683   0.00657  -0.00002
  66        4XY         0.00003   0.00014   0.00003  -0.00008  -0.00001
  67        4XZ         0.00000   0.00000   0.00000   0.00000   0.00000
  68        4YZ         0.00000   0.00000   0.00000   0.00000   0.00000
  69 9   H  1S         -0.00004  -0.00012  -0.00036   0.00021  -0.00004
  70        2S         -0.00013  -0.00015   0.00107  -0.00149   0.00006
  71 10  C  1S          0.00259   0.99120  -0.04321   0.03020   0.00001
  72        2S          0.00008   0.04902  -0.00230   0.00160  -0.00001
  73        2PX         0.00001  -0.00004   0.00013  -0.00015   0.00001
  74        2PY        -0.00003   0.00001  -0.00006   0.00003   0.00000
  75        2PZ         0.00000   0.00000   0.00000   0.00000   0.00000
  76        3S          0.00008  -0.01467   0.00333  -0.00359   0.00013
  77        3PX        -0.00026   0.00164  -0.00100   0.00135  -0.00021
  78        3PY         0.00066   0.00093   0.00093  -0.00078   0.00001
  79        3PZ         0.00000   0.00000   0.00000   0.00000   0.00000
  80        4XX        -0.00001  -0.00929   0.00010   0.00007   0.00001
  81        4YY        -0.00004  -0.00905   0.00024  -0.00008  -0.00001
  82        4ZZ        -0.00005  -0.00947   0.00029  -0.00018  -0.00001
  83        4XY        -0.00002   0.00010   0.00009  -0.00011   0.00000
  84        4XZ         0.00000   0.00000   0.00000   0.00000   0.00000
  85        4YZ         0.00000   0.00000   0.00000   0.00000   0.00000
  86 11  H  1S         -0.00005  -0.00042  -0.00006   0.00006   0.00000
  87        2S          0.00002   0.00178  -0.00034   0.00006   0.00011
  88 12  C  1S          0.00004   0.02099  -0.00111   0.00080  -0.00020
  89        2S         -0.00002   0.00051  -0.00013   0.00005  -0.00003
  90        2PX        -0.00001   0.00002   0.00003   0.00000   0.00001
  91        2PY         0.00001  -0.00035  -0.00002   0.00001  -0.00001
  92        2PZ         0.00000   0.00000   0.00000   0.00000   0.00000
  93        3S          0.00048   0.00486  -0.00004   0.00038   0.00003
  94        3PX         0.00015  -0.00074  -0.00005  -0.00044  -0.00001
  95        3PY         0.00024   0.00203   0.00017   0.00023   0.00007
  96        3PZ         0.00000   0.00000   0.00000   0.00000   0.00000
  97        4XX         0.00000  -0.00039   0.00004  -0.00004   0.00000
  98        4YY         0.00001  -0.00052   0.00007  -0.00005   0.00000
  99        4ZZ        -0.00001  -0.00033  -0.00003   0.00001  -0.00001
 100        4XY         0.00000  -0.00003   0.00000  -0.00003   0.00000
 101        4XZ         0.00000   0.00000   0.00000   0.00000   0.00000
 102        4YZ         0.00000   0.00000   0.00000   0.00000   0.00000
 103 13  H  1S          0.00000  -0.00015  -0.00003  -0.00005  -0.00001
 104        2S          0.00009  -0.00038   0.00009  -0.00006   0.00003
 105 14  H  1S         -0.00003  -0.00004   0.00000   0.00003   0.00000
 106        2S         -0.00004   0.00022   0.00018   0.00012   0.00003
                           6         7         8         9        10
                           O         O         O         O         O
     Eigenvalues --   -10.17984  -0.80343  -0.76594  -0.71616  -0.60345
   1 1   C  1S          0.00019  -0.05933   0.10465  -0.10762  -0.09515
   2        2S         -0.00001   0.11335  -0.20164   0.20878   0.19054
   3        2PX        -0.00001   0.00579  -0.00223  -0.00964  -0.02097
   4        2PY         0.00001  -0.04802   0.06798  -0.04073   0.07922
   5        2PZ         0.00000   0.00000   0.00000   0.00000   0.00000
   6        3S          0.00002   0.09341  -0.15875   0.16926   0.16959
   7        3PX         0.00002  -0.00083  -0.00203   0.00743  -0.00759
   8        3PY        -0.00006  -0.01007   0.00812   0.00021   0.03558
   9        3PZ         0.00000   0.00000   0.00000   0.00000   0.00000
  10        4XX         0.00000  -0.00016  -0.00086   0.00245   0.00833
  11        4YY         0.00000   0.00429  -0.00544   0.00287  -0.00506
  12        4ZZ        -0.00001  -0.00643   0.01100  -0.01107  -0.00882
  13        4XY         0.00000  -0.00042   0.00016   0.00052   0.00047
  14        4XZ         0.00000   0.00000   0.00000   0.00000   0.00000
  15        4YZ         0.00000   0.00000   0.00000   0.00000   0.00000
  16 2   H  1S         -0.00001   0.03089  -0.05700   0.06335   0.08769
  17        2S          0.00003   0.00669  -0.01081   0.01011   0.03414
  18 3   H  1S          0.00000   0.02669  -0.05498   0.07001   0.10423
  19        2S          0.00003   0.00300  -0.01111   0.02156   0.04274
  20 4   C  1S          0.00000  -0.09112   0.11390  -0.05712   0.06097
  21        2S         -0.00001   0.17783  -0.22449   0.11605  -0.12489
  22        2PX        -0.00001   0.03185  -0.00874  -0.04359  -0.05272
  23        2PY         0.00000   0.00480  -0.05820   0.11341   0.12945
  24        2PZ         0.00000   0.00000   0.00000   0.00000   0.00000
  25        3S          0.00014   0.11082  -0.15362   0.06626  -0.10953
  26        3PX         0.00020  -0.00019   0.01042  -0.02843  -0.00810
  27        3PY        -0.00001  -0.01769   0.00546   0.02510   0.04678
  28        3PZ         0.00000   0.00000   0.00000   0.00000   0.00000
  29        4XX         0.00001   0.00349  -0.00002  -0.00603  -0.00942
  30        4YY        -0.00001   0.00285  -0.00426   0.00389   0.00811
  31        4ZZ        -0.00001  -0.00971   0.01155  -0.00513   0.00541
  32        4XY         0.00000  -0.00249  -0.00122   0.00612   0.00123
  33        4XZ         0.00000   0.00000   0.00000   0.00000   0.00000
  34        4YZ         0.00000   0.00000   0.00000   0.00000   0.00000
  35 5   H  1S          0.00000   0.04715  -0.06179   0.03280  -0.05932
  36        2S          0.00011   0.00582  -0.00611   0.00275  -0.01917
  37 6   C  1S          0.00000  -0.12066   0.03768   0.09521   0.07616
  38        2S         -0.00006   0.23428  -0.07332  -0.19057  -0.15634
  39        2PX         0.00000  -0.01689   0.04490  -0.02493   0.05669
  40        2PY         0.00000  -0.04943  -0.05344   0.10084  -0.09846
  41        2PZ         0.00000   0.00000   0.00000   0.00000   0.00000
  42        3S          0.00080   0.16530  -0.04005  -0.13046  -0.13504
  43        3PX         0.00028   0.00114   0.00515  -0.03449   0.00939
  44        3PY        -0.00071   0.00608  -0.03281   0.02042  -0.03696
  45        3PZ         0.00000   0.00000   0.00000   0.00000   0.00000
  46        4XX        -0.00001   0.00168  -0.00534   0.00374  -0.00809
  47        4YY         0.00003   0.00551   0.00150  -0.00354   0.00765
  48        4ZZ        -0.00002  -0.01281   0.00402   0.00893   0.00642
  49        4XY        -0.00002  -0.00134   0.00317  -0.00571  -0.00109
  50        4XZ         0.00000   0.00000   0.00000   0.00000   0.00000
  51        4YZ         0.00000   0.00000   0.00000   0.00000   0.00000
  52 7   H  1S         -0.00004   0.06282  -0.01999  -0.05537  -0.06274
  53        2S          0.00006   0.00827   0.00013  -0.00247  -0.01832
  54 8   C  1S          0.00025  -0.12040  -0.03865   0.09520  -0.07616
  55        2S         -0.00003   0.23376   0.07525  -0.19059   0.15632
  56        2PX         0.00002   0.01726   0.04493   0.02478   0.05625
  57        2PY         0.00006   0.04987  -0.05225  -0.10073  -0.09826
  58        2PZ         0.00000   0.00000   0.00000   0.00000   0.00000
  59        3S         -0.00086   0.16496   0.04114  -0.12995   0.13505
  60        3PX        -0.00034  -0.00114   0.00492   0.03455   0.00935
  61        3PY        -0.00071  -0.00574  -0.03252  -0.02001  -0.03701
  62        3PZ         0.00000   0.00000   0.00000   0.00000   0.00000
  63        4XX         0.00006   0.00165   0.00537   0.00383   0.00808
  64        4YY         0.00000   0.00551  -0.00151  -0.00361  -0.00763
  65        4ZZ        -0.00002  -0.01278  -0.00412   0.00892  -0.00643
  66        4XY        -0.00003  -0.00125  -0.00310  -0.00577   0.00121
  67        4XZ         0.00000   0.00000   0.00000   0.00000   0.00000
  68        4YZ         0.00000   0.00000   0.00000   0.00000   0.00000
  69 9   H  1S         -0.00004   0.06240   0.02058  -0.05519   0.06324
  70        2S         -0.00028   0.00819  -0.00009  -0.00240   0.01865
  71 10  C  1S         -0.02149  -0.09074  -0.11400  -0.05758  -0.06034
  72        2S         -0.00156   0.17705   0.22464   0.11692   0.12359
  73        2PX         0.00001  -0.03143  -0.00803   0.04510  -0.05429
  74        2PY         0.00041  -0.00451  -0.05771  -0.11378   0.12800
  75        2PZ         0.00000   0.00000   0.00000   0.00000   0.00000
  76        3S          0.00514   0.11023   0.15395   0.06701   0.10835
  77        3PX        -0.00001  -0.00013   0.01006   0.02866  -0.00860
  78        3PY        -0.00200   0.01801   0.00566  -0.02523   0.04630
  79        3PZ         0.00000   0.00000   0.00000   0.00000   0.00000
  80        4XX        -0.00003   0.00351   0.00006  -0.00610   0.00936
  81        4YY        -0.00011   0.00281   0.00426   0.00397  -0.00806
  82        4ZZ         0.00007  -0.00968  -0.01157  -0.00518  -0.00535
  83        4XY         0.00000  -0.00254   0.00106   0.00601  -0.00110
  84        4XZ         0.00000   0.00000   0.00000   0.00000   0.00000
  85        4YZ         0.00000   0.00000   0.00000   0.00000   0.00000
  86 11  H  1S         -0.00006   0.04707   0.06201   0.03321   0.05818
  87        2S         -0.00014   0.00592   0.00630   0.00293   0.01860
  88 12  C  1S          0.99249  -0.05880  -0.10439  -0.10831   0.09438
  89        2S          0.04937   0.11229   0.20110   0.21011  -0.18896
  90        2PX        -0.00002  -0.00620  -0.00295   0.00919  -0.02178
  91        2PY        -0.00001   0.04761   0.06790   0.04122   0.07796
  92        2PZ         0.00000   0.00000   0.00000   0.00000   0.00000
  93        3S         -0.01345   0.09290   0.15823   0.16997  -0.16811
  94        3PX         0.00014   0.00082  -0.00192  -0.00737  -0.00802
  95        3PY        -0.00122   0.01021   0.00814  -0.00032   0.03509
  96        3PZ         0.00000   0.00000   0.00000   0.00000   0.00000
  97        4XX        -0.00941  -0.00016   0.00085   0.00244  -0.00823
  98        4YY        -0.00928   0.00427   0.00544   0.00291   0.00499
  99        4ZZ        -0.00978  -0.00638  -0.01098  -0.01115   0.00875
 100        4XY         0.00000  -0.00048  -0.00022   0.00052  -0.00065
 101        4XZ         0.00000   0.00000   0.00000   0.00000   0.00000
 102        4YZ         0.00000   0.00000   0.00000   0.00000   0.00000
 103 13  H  1S         -0.00033   0.03055   0.05679   0.06373  -0.08683
 104        2S          0.00228   0.00667   0.01089   0.01029  -0.03382
 105 14  H  1S         -0.00037   0.02645   0.05483   0.07042  -0.10330
 106        2S          0.00216   0.00296   0.01104   0.02168  -0.04233
                          11        12        13        14        15
                           O         O         O         O         O
     Eigenvalues --    -0.56277  -0.55647  -0.47596  -0.45973  -0.42201
   1 1   C  1S         -0.02141   0.06913  -0.01421   0.00763   0.00430
   2        2S          0.04334  -0.13972   0.03104  -0.01477  -0.00958
   3        2PX         0.06661  -0.04065  -0.19763  -0.20211  -0.10732
   4        2PY         0.05143  -0.14286   0.11749  -0.07594   0.28569
   5        2PZ         0.00000   0.00000   0.00000   0.00000   0.00000
   6        3S          0.03056  -0.14215   0.02476  -0.05199  -0.01546
   7        3PX         0.02422  -0.01242  -0.08613  -0.06921  -0.03786
   8        3PY         0.01906  -0.04721   0.04866  -0.01871   0.10659
   9        3PZ         0.00000   0.00000   0.00000   0.00000   0.00000
  10        4XX         0.00422  -0.01070   0.00607  -0.00399   0.01343
  11        4YY        -0.00347   0.00745  -0.00349   0.00178  -0.00559
  12        4ZZ        -0.00200   0.00622  -0.00085   0.00076  -0.00001
  13        4XY        -0.00129   0.00119  -0.00368  -0.00452  -0.00509
  14        4XZ         0.00000   0.00000   0.00000   0.00000   0.00000
  15        4YZ         0.00000   0.00000   0.00000   0.00000   0.00000
  16 2   H  1S          0.06103  -0.11390  -0.04693  -0.12769   0.02981
  17        2S          0.03499  -0.05941  -0.02942  -0.08712   0.02929
  18 3   H  1S          0.00549  -0.08127   0.14190   0.06706   0.14680
  19        2S          0.00380  -0.03954   0.09064   0.05288   0.12274
  20 4   C  1S          0.04915  -0.09087   0.02041  -0.00799   0.02329
  21        2S         -0.10142   0.18731  -0.04838   0.01538  -0.05122
  22        2PX         0.12895  -0.08989  -0.18269  -0.18112  -0.02515
  23        2PY         0.05118  -0.06956  -0.07705   0.06858  -0.26230
  24        2PZ         0.00000   0.00000   0.00000   0.00000   0.00000
  25        3S         -0.09117   0.18347  -0.00943   0.01937  -0.03288
  26        3PX         0.03751  -0.02640  -0.04031  -0.06095  -0.00680
  27        3PY         0.03048  -0.02663  -0.01879   0.05538  -0.06472
  28        3PZ         0.00000   0.00000   0.00000   0.00000   0.00000
  29        4XX         0.00097   0.00504   0.00261   0.00280   0.01157
  30        4YY        -0.00008  -0.00706   0.00396  -0.00230  -0.00322
  31        4ZZ         0.00437  -0.00779   0.00034  -0.00099   0.00115
  32        4XY        -0.00538   0.00679  -0.00212   0.00256  -0.00314
  33        4XZ         0.00000   0.00000   0.00000   0.00000   0.00000
  34        4YZ         0.00000   0.00000   0.00000   0.00000   0.00000
  35 5   H  1S         -0.11156   0.13632   0.08657   0.07626   0.06960
  36        2S         -0.06124   0.06836   0.07199   0.05964   0.06893
  37 6   C  1S         -0.07765   0.03483  -0.00873  -0.00541  -0.04023
  38        2S          0.15890  -0.07148   0.01974   0.00398   0.08688
  39        2PX         0.15615  -0.07045   0.01492   0.22407  -0.05589
  40        2PY         0.10784   0.06231  -0.21991   0.00316   0.03869
  41        2PZ         0.00000   0.00000   0.00000   0.00000   0.00000
  42        3S          0.15704  -0.07245  -0.01265   0.07613   0.12347
  43        3PX         0.04680  -0.01779   0.02764   0.06757  -0.03540
  44        3PY         0.03520   0.00575  -0.08193  -0.04378  -0.00448
  45        3PZ         0.00000   0.00000   0.00000   0.00000   0.00000
  46        4XX         0.00509   0.00657  -0.00594   0.00481   0.00501
  47        4YY        -0.00526  -0.00361   0.00054  -0.00098  -0.00926
  48        4ZZ        -0.00692   0.00298  -0.00036  -0.00186  -0.00219
  49        4XY         0.00411  -0.00788   0.00250   0.00187   0.00588
  50        4XZ         0.00000   0.00000   0.00000   0.00000   0.00000
  51        4YZ         0.00000   0.00000   0.00000   0.00000   0.00000
  52 7   H  1S          0.16283  -0.04481  -0.04532   0.11311   0.02899
  53        2S          0.09016  -0.01981  -0.03957   0.08427   0.02051
  54 8   C  1S          0.07714   0.03609  -0.00847   0.00577   0.04032
  55        2S         -0.15787  -0.07401   0.01934  -0.00470  -0.08698
  56        2PX         0.15411   0.07511  -0.01170   0.22494  -0.05255
  57        2PY         0.11022  -0.06029   0.22000   0.00098   0.04099
  58        2PZ         0.00000   0.00000   0.00000   0.00000   0.00000
  59        3S         -0.15609  -0.07550  -0.01476  -0.07661  -0.12444
  60        3PX         0.04623   0.01914  -0.02692   0.06811  -0.03491
  61        3PY         0.03549  -0.00571   0.08069  -0.04486  -0.00347
  62        3PZ         0.00000   0.00000   0.00000   0.00000   0.00000
  63        4XX        -0.00516   0.00656  -0.00611  -0.00462  -0.00510
  64        4YY         0.00526  -0.00362   0.00064   0.00091   0.00920
  65        4ZZ         0.00687   0.00310  -0.00031   0.00188   0.00222
  66        4XY        -0.00397  -0.00793   0.00244  -0.00204  -0.00618
  67        4XZ         0.00000   0.00000   0.00000   0.00000   0.00000
  68        4YZ         0.00000   0.00000   0.00000   0.00000   0.00000
  69 9   H  1S         -0.16205  -0.04834  -0.04773  -0.11302  -0.03187
  70        2S         -0.08980  -0.02205  -0.04135  -0.08431  -0.02291
  71 10  C  1S         -0.04671  -0.09246   0.02070   0.00757  -0.02354
  72        2S          0.09639   0.19061  -0.04886  -0.01442   0.05162
  73        2PX         0.12649   0.09159   0.17835  -0.18526  -0.02339
  74        2PY         0.05051   0.07226   0.07879   0.06577  -0.25835
  75        2PZ         0.00000   0.00000   0.00000   0.00000   0.00000
  76        3S          0.08595   0.18610  -0.01065  -0.01878   0.03463
  77        3PX         0.03666   0.02692   0.03919  -0.06218  -0.00746
  78        3PY         0.03054   0.02808   0.02016   0.05479  -0.06325
  79        3PZ         0.00000   0.00000   0.00000   0.00000   0.00000
  80        4XX        -0.00115   0.00503   0.00262  -0.00295  -0.01154
  81        4YY         0.00029  -0.00707   0.00395   0.00229   0.00327
  82        4ZZ        -0.00417  -0.00792   0.00038   0.00098  -0.00119
  83        4XY         0.00522   0.00700  -0.00219  -0.00253   0.00315
  84        4XZ         0.00000   0.00000   0.00000   0.00000   0.00000
  85        4YZ         0.00000   0.00000   0.00000   0.00000   0.00000
  86 11  H  1S          0.10815   0.13910   0.08465  -0.07806  -0.06804
  87        2S          0.05954   0.06976   0.07045  -0.06127  -0.06754
  88 12  C  1S          0.01986   0.07040  -0.01428  -0.00755  -0.00421
  89        2S         -0.04027  -0.14229   0.03113   0.01456   0.00938
  90        2PX         0.06482   0.04019   0.19515  -0.20544  -0.11699
  91        2PY         0.04886   0.14551  -0.11527  -0.07675   0.28083
  92        2PZ         0.00000   0.00000   0.00000   0.00000   0.00000
  93        3S         -0.02700  -0.14413   0.02586   0.05216   0.01527
  94        3PX         0.02356   0.01238   0.08531  -0.07099  -0.04105
  95        3PY         0.01849   0.04829  -0.04734  -0.01873   0.10474
  96        3PZ         0.00000   0.00000   0.00000   0.00000   0.00000
  97        4XX        -0.00398  -0.01090   0.00617   0.00381  -0.01338
  98        4YY         0.00332   0.00761  -0.00357  -0.00165   0.00563
  99        4ZZ         0.00185   0.00633  -0.00087  -0.00075   0.00001
 100        4XY         0.00117   0.00097  -0.00348   0.00469   0.00513
 101        4XZ         0.00000   0.00000   0.00000   0.00000   0.00000
 102        4YZ         0.00000   0.00000   0.00000   0.00000   0.00000
 103 13  H  1S         -0.05826  -0.11605  -0.04498   0.12919  -0.02543
 104        2S         -0.03352  -0.06051  -0.02819   0.08807  -0.02557
 105 14  H  1S         -0.00378  -0.08242   0.14016  -0.06970  -0.14910
 106        2S         -0.00295  -0.04016   0.08937  -0.05457  -0.12469
                          16        17        18        19        20
                           O         O         O         O         O
     Eigenvalues --    -0.40381  -0.38280  -0.37129  -0.33622  -0.32509
   1 1   C  1S          0.00328  -0.01774   0.00705  -0.01090   0.00000
   2        2S         -0.00580   0.03862  -0.01422   0.02337   0.00000
   3        2PX         0.21507  -0.00258   0.21244   0.13905   0.00000
   4        2PY         0.14609  -0.18737   0.06037  -0.10811   0.00000
   5        2PZ         0.00000   0.00000   0.00000   0.00000   0.14268
   6        3S         -0.01319   0.07319  -0.03012   0.04901   0.00000
   7        3PX         0.06730  -0.00282   0.07182   0.04099   0.00000
   8        3PY         0.06553  -0.07222   0.02540  -0.05738   0.00000
   9        3PZ         0.00000   0.00000   0.00000   0.00000   0.09098
  10        4XX         0.00663  -0.00880   0.00325  -0.00356   0.00000
  11        4YY        -0.00247   0.00289  -0.00086   0.00042   0.00000
  12        4ZZ         0.00035  -0.00070   0.00057  -0.00053   0.00000
  13        4XY         0.01249  -0.00230   0.01899   0.01683   0.00000
  14        4XZ         0.00000   0.00000   0.00000   0.00000   0.00076
  15        4YZ         0.00000   0.00000   0.00000   0.00000  -0.00814
  16 2   H  1S          0.16237  -0.05290   0.14696   0.07225   0.00000
  17        2S          0.13767  -0.06545   0.14722   0.08172   0.00000
  18 3   H  1S         -0.07319  -0.04351  -0.11549  -0.12244   0.00000
  19        2S         -0.06745  -0.04911  -0.10807  -0.13279   0.00000
  20 4   C  1S         -0.01174  -0.00640  -0.00393   0.01895   0.00000
  21        2S          0.01959   0.01779   0.00538  -0.04052   0.00000
  22        2PX        -0.00798   0.07909  -0.20101  -0.23515   0.00000
  23        2PY        -0.17973   0.18827  -0.07258   0.14579   0.00000
  24        2PZ         0.00000   0.00000   0.00000   0.00000   0.21953
  25        3S          0.09157  -0.01400   0.01525  -0.11209   0.00000
  26        3PX         0.02898   0.00294  -0.06098  -0.09684   0.00000
  27        3PY        -0.06239   0.03450  -0.01516   0.03707   0.00000
  28        3PZ         0.00000   0.00000   0.00000   0.00000   0.13799
  29        4XX         0.00386  -0.01388   0.00687  -0.00282   0.00000
  30        4YY        -0.00010   0.00879  -0.00324   0.00449   0.00000
  31        4ZZ        -0.00164   0.00040  -0.00100   0.00058   0.00000
  32        4XY         0.00768  -0.00909   0.01935   0.01390   0.00000
  33        4XZ         0.00000   0.00000   0.00000   0.00000   0.00602
  34        4YZ         0.00000   0.00000   0.00000   0.00000   0.00062
  35 5   H  1S          0.07601  -0.11325   0.15618   0.08054   0.00000
  36        2S          0.06578  -0.12930   0.15228   0.09219   0.00000
  37 6   C  1S          0.01134  -0.01587   0.02030   0.00673   0.00000
  38        2S         -0.02026   0.03577  -0.04360  -0.01586   0.00000
  39        2PX        -0.14862  -0.11263   0.15544   0.22801   0.00000
  40        2PY        -0.12230  -0.28424  -0.04132  -0.16129   0.00000
  41        2PZ         0.00000   0.00000   0.00000   0.00000   0.28811
  42        3S         -0.06398   0.05737  -0.07120  -0.04214   0.00000
  43        3PX        -0.01379  -0.03780   0.05858   0.07217   0.00000
  44        3PY        -0.05872  -0.06845  -0.01783  -0.05245   0.00000
  45        3PZ         0.00000   0.00000   0.00000   0.00000   0.18168
  46        4XX        -0.00428  -0.01702   0.00299  -0.00268   0.00000
  47        4YY        -0.00003   0.00906  -0.00022   0.00354   0.00000
  48        4ZZ         0.00142  -0.00042   0.00094  -0.00029   0.00000
  49        4XY        -0.01186  -0.01363   0.00211   0.01714   0.00000
  50        4XZ         0.00000   0.00000   0.00000   0.00000  -0.00370
  51        4YZ         0.00000   0.00000   0.00000   0.00000  -0.00778
  52 7   H  1S         -0.13276  -0.15830   0.05276   0.09091   0.00000
  53        2S         -0.11077  -0.17465   0.05383   0.10898   0.00000
  54 8   C  1S          0.00969  -0.01512  -0.02100   0.00657   0.00000
  55        2S         -0.01666   0.03411   0.04508  -0.01558   0.00000
  56        2PX         0.15111   0.10501   0.15691  -0.22890   0.00000
  57        2PY         0.12079   0.28601  -0.03125   0.16053   0.00000
  58        2PZ         0.00000   0.00000   0.00000   0.00000   0.28775
  59        3S         -0.05904   0.05520   0.07475  -0.04125   0.00000
  60        3PX         0.01510   0.03483   0.06008  -0.07296   0.00000
  61        3PY         0.05790   0.06986  -0.01620   0.05332   0.00000
  62        3PZ         0.00000   0.00000   0.00000   0.00000   0.18125
  63        4XX        -0.00405  -0.01676  -0.00354  -0.00280   0.00000
  64        4YY        -0.00041   0.00887   0.00057   0.00363   0.00000
  65        4ZZ         0.00134  -0.00039  -0.00099  -0.00031   0.00000
  66        4XY        -0.01175  -0.01366  -0.00245   0.01714   0.00000
  67        4XZ         0.00000   0.00000   0.00000   0.00000   0.00374
  68        4YZ         0.00000   0.00000   0.00000   0.00000   0.00784
  69 9   H  1S         -0.13208  -0.15589  -0.05662   0.09091   0.00000
  70        2S         -0.11077  -0.17196  -0.05888   0.10902   0.00000
  71 10  C  1S         -0.01124  -0.00669   0.00389   0.01920   0.00000
  72        2S          0.01860   0.01826  -0.00502  -0.04109   0.00000
  73        2PX         0.00422  -0.06928  -0.20330   0.23649   0.00000
  74        2PY         0.18523  -0.18557  -0.08528  -0.14352   0.00000
  75        2PZ         0.00000   0.00000   0.00000   0.00000   0.21860
  76        3S          0.09065  -0.01295  -0.01792  -0.11264   0.00000
  77        3PX        -0.02963  -0.00052  -0.05997   0.09650   0.00000
  78        3PY         0.06339  -0.03382  -0.01852  -0.03547   0.00000
  79        3PZ         0.00000   0.00000   0.00000   0.00000   0.13752
  80        4XX         0.00396  -0.01346  -0.00726  -0.00298   0.00000
  81        4YY        -0.00004   0.00854   0.00335   0.00470   0.00000
  82        4ZZ        -0.00159   0.00035   0.00105   0.00058   0.00000
  83        4XY         0.00734  -0.00855  -0.01990   0.01381   0.00000
  84        4XZ         0.00000   0.00000   0.00000   0.00000  -0.00596
  85        4YZ         0.00000   0.00000   0.00000   0.00000  -0.00061
  86 11  H  1S          0.07549  -0.10676  -0.16201   0.08071   0.00000
  87        2S          0.06523  -0.12310  -0.15880   0.09250   0.00000
  88 12  C  1S          0.00353  -0.01735  -0.00798  -0.01089   0.00000
  89        2S         -0.00633   0.03776   0.01621   0.02327   0.00000
  90        2PX        -0.20609  -0.00775   0.21456  -0.14073   0.00000
  91        2PY        -0.15444   0.18475   0.07300   0.10614   0.00000
  92        2PZ         0.00000   0.00000   0.00000   0.00000   0.14171
  93        3S         -0.01398   0.07169   0.03380   0.04943   0.00000
  94        3PX        -0.06411  -0.00086   0.07226  -0.04172   0.00000
  95        3PY        -0.06854   0.07140   0.03048   0.05700   0.00000
  96        3PZ         0.00000   0.00000   0.00000   0.00000   0.09025
  97        4XX         0.00665  -0.00863  -0.00331  -0.00390   0.00000
  98        4YY        -0.00233   0.00280   0.00058   0.00077   0.00000
  99        4ZZ         0.00036  -0.00068  -0.00061  -0.00055   0.00000
 100        4XY         0.01215  -0.00177  -0.01932   0.01677   0.00000
 101        4XZ         0.00000   0.00000   0.00000   0.00000  -0.00083
 102        4YZ         0.00000   0.00000   0.00000   0.00000   0.00808
 103 13  H  1S          0.16001  -0.04734  -0.15132   0.07246   0.00000
 104        2S          0.13571  -0.05981  -0.15197   0.08196   0.00000
 105 14  H  1S         -0.06744  -0.04789   0.11470  -0.12258   0.00000
 106        2S         -0.06234  -0.05289   0.10705  -0.13288   0.00000
                          21        22        23        24        25
                           O         O         V         V         V
     Eigenvalues --    -0.27751  -0.21168  -0.03461   0.03925   0.08454
   1 1   C  1S          0.00000   0.00000   0.00000   0.00000   0.00000
   2        2S          0.00000   0.00000   0.00000   0.00000   0.00000
   3        2PX         0.00000   0.00000   0.00000   0.00000   0.00000
   4        2PY         0.00000   0.00000   0.00000   0.00000   0.00000
   5        2PZ        -0.25861   0.27626   0.29117  -0.26548  -0.11995
   6        3S          0.00000   0.00000   0.00000   0.00000   0.00000
   7        3PX         0.00000   0.00000   0.00000   0.00000   0.00000
   8        3PY         0.00000   0.00000   0.00000   0.00000   0.00000
   9        3PZ        -0.18532   0.23031   0.35160  -0.41895  -0.29848
  10        4XX         0.00000   0.00000   0.00000   0.00000   0.00000
  11        4YY         0.00000   0.00000   0.00000   0.00000   0.00000
  12        4ZZ         0.00000   0.00000   0.00000   0.00000   0.00000
  13        4XY         0.00000   0.00000   0.00000   0.00000   0.00000
  14        4XZ        -0.00026  -0.00112  -0.00189  -0.00160  -0.00520
  15        4YZ         0.01132  -0.00693   0.00988  -0.02021  -0.01424
  16 2   H  1S          0.00000   0.00000   0.00000   0.00000   0.00000
  17        2S          0.00000   0.00000   0.00000   0.00000   0.00000
  18 3   H  1S          0.00000   0.00000   0.00000   0.00000   0.00000
  19        2S          0.00000   0.00000   0.00000   0.00000   0.00000
  20 4   C  1S          0.00000   0.00000   0.00000   0.00000   0.00000
  21        2S          0.00000   0.00000   0.00000   0.00000   0.00000
  22        2PX         0.00000   0.00000   0.00000   0.00000   0.00000
  23        2PY         0.00000   0.00000   0.00000   0.00000   0.00000
  24        2PZ        -0.29046   0.16781  -0.17452   0.34298   0.25075
  25        3S          0.00000   0.00000   0.00000   0.00000   0.00000
  26        3PX         0.00000   0.00000   0.00000   0.00000   0.00000
  27        3PY         0.00000   0.00000   0.00000   0.00000   0.00000
  28        3PZ        -0.19530   0.11541  -0.21922   0.46542   0.47047
  29        4XX         0.00000   0.00000   0.00000   0.00000   0.00000
  30        4YY         0.00000   0.00000   0.00000   0.00000   0.00000
  31        4ZZ         0.00000   0.00000   0.00000   0.00000   0.00000
  32        4XY         0.00000   0.00000   0.00000   0.00000   0.00000
  33        4XZ        -0.00163  -0.00771  -0.00974  -0.00787  -0.01870
  34        4YZ        -0.00920   0.01724   0.01961  -0.01192  -0.00386
  35 5   H  1S          0.00000   0.00000   0.00000   0.00000   0.00000
  36        2S          0.00000   0.00000   0.00000   0.00000   0.00000
  37 6   C  1S          0.00000   0.00000   0.00000   0.00000   0.00000
  38        2S          0.00000   0.00000   0.00000   0.00000   0.00000
  39        2PX         0.00000   0.00000   0.00000   0.00000   0.00000
  40        2PY         0.00000   0.00000   0.00000   0.00000   0.00000
  41        2PZ        -0.08914  -0.27021  -0.27410  -0.13408  -0.33335
  42        3S          0.00000   0.00000   0.00000   0.00000   0.00000
  43        3PX         0.00000   0.00000   0.00000   0.00000   0.00000
  44        3PY         0.00000   0.00000   0.00000   0.00000   0.00000
  45        3PZ        -0.06917  -0.20378  -0.29232  -0.15247  -0.62515
  46        4XX         0.00000   0.00000   0.00000   0.00000   0.00000
  47        4YY         0.00000   0.00000   0.00000   0.00000   0.00000
  48        4ZZ         0.00000   0.00000   0.00000   0.00000   0.00000
  49        4XY         0.00000   0.00000   0.00000   0.00000   0.00000
  50        4XZ         0.00787  -0.00472   0.00699  -0.01242  -0.01908
  51        4YZ        -0.00868   0.01580  -0.01645   0.01217  -0.01565
  52 7   H  1S          0.00000   0.00000   0.00000   0.00000   0.00000
  53        2S          0.00000   0.00000   0.00000   0.00000   0.00000
  54 8   C  1S          0.00000   0.00000   0.00000   0.00000   0.00000
  55        2S          0.00000   0.00000   0.00000   0.00000   0.00000
  56        2PX         0.00000   0.00000   0.00000   0.00000   0.00000
  57        2PY         0.00000   0.00000   0.00000   0.00000   0.00000
  58        2PZ         0.09097  -0.27016   0.27410  -0.13159   0.33420
  59        3S          0.00000   0.00000   0.00000   0.00000   0.00000
  60        3PX         0.00000   0.00000   0.00000   0.00000   0.00000
  61        3PY         0.00000   0.00000   0.00000   0.00000   0.00000
  62        3PZ         0.07041  -0.20378   0.29251  -0.14879   0.62603
  63        4XX         0.00000   0.00000   0.00000   0.00000   0.00000
  64        4YY         0.00000   0.00000   0.00000   0.00000   0.00000
  65        4ZZ         0.00000   0.00000   0.00000   0.00000   0.00000
  66        4XY         0.00000   0.00000   0.00000   0.00000   0.00000
  67        4XZ         0.00790   0.00474   0.00699   0.01244  -0.01910
  68        4YZ        -0.00854  -0.01578  -0.01643  -0.01227  -0.01566
  69 9   H  1S          0.00000   0.00000   0.00000   0.00000   0.00000
  70        2S          0.00000   0.00000   0.00000   0.00000   0.00000
  71 10  C  1S          0.00000   0.00000   0.00000   0.00000   0.00000
  72        2S          0.00000   0.00000   0.00000   0.00000   0.00000
  73        2PX         0.00000   0.00000   0.00000   0.00000   0.00000
  74        2PY         0.00000   0.00000   0.00000   0.00000   0.00000
  75        2PZ         0.29065   0.16862   0.17356   0.34257  -0.25200
  76        3S          0.00000   0.00000   0.00000   0.00000   0.00000
  77        3PX         0.00000   0.00000   0.00000   0.00000   0.00000
  78        3PY         0.00000   0.00000   0.00000   0.00000   0.00000
  79        3PZ         0.19545   0.11593   0.21776   0.46425  -0.47233
  80        4XX         0.00000   0.00000   0.00000   0.00000   0.00000
  81        4YY         0.00000   0.00000   0.00000   0.00000   0.00000
  82        4ZZ         0.00000   0.00000   0.00000   0.00000   0.00000
  83        4XY         0.00000   0.00000   0.00000   0.00000   0.00000
  84        4XZ        -0.00153   0.00790  -0.00993   0.00760  -0.01867
  85        4YZ        -0.00916  -0.01725   0.01945   0.01202  -0.00410
  86 11  H  1S          0.00000   0.00000   0.00000   0.00000   0.00000
  87        2S          0.00000   0.00000   0.00000   0.00000   0.00000
  88 12  C  1S          0.00000   0.00000   0.00000   0.00000   0.00000
  89        2S          0.00000   0.00000   0.00000   0.00000   0.00000
  90        2PX         0.00000   0.00000   0.00000   0.00000   0.00000
  91        2PY         0.00000   0.00000   0.00000   0.00000   0.00000
  92        2PZ         0.25825   0.27723  -0.28988  -0.26601   0.12140
  93        3S          0.00000   0.00000   0.00000   0.00000   0.00000
  94        3PX         0.00000   0.00000   0.00000   0.00000   0.00000
  95        3PY         0.00000   0.00000   0.00000   0.00000   0.00000
  96        3PZ         0.18498   0.23112  -0.34989  -0.41897   0.30054
  97        4XX         0.00000   0.00000   0.00000   0.00000   0.00000
  98        4YY         0.00000   0.00000   0.00000   0.00000   0.00000
  99        4ZZ         0.00000   0.00000   0.00000   0.00000   0.00000
 100        4XY         0.00000   0.00000   0.00000   0.00000   0.00000
 101        4XZ        -0.00038   0.00104  -0.00200   0.00130  -0.00498
 102        4YZ         0.01132   0.00698   0.00979   0.02022  -0.01440
 103 13  H  1S          0.00000   0.00000   0.00000   0.00000   0.00000
 104        2S          0.00000   0.00000   0.00000   0.00000   0.00000
 105 14  H  1S          0.00000   0.00000   0.00000   0.00000   0.00000
 106        2S          0.00000   0.00000   0.00000   0.00000   0.00000
                          26        27        28        29        30
                           V         V         V         V         V
     Eigenvalues --     0.10810   0.12561   0.13260   0.14501   0.15699
   1 1   C  1S          0.01708  -0.06561  -0.06732   0.05592   0.01865
   2        2S         -0.02302   0.10357   0.10143  -0.09148  -0.02526
   3        2PX        -0.11464  -0.01843  -0.05711  -0.10860  -0.14931
   4        2PY        -0.02858   0.14274   0.14297  -0.01751  -0.06321
   5        2PZ         0.00000   0.00000   0.00000   0.00000   0.00000
   6        3S         -0.29621   1.01877   1.13899  -0.85351  -0.21894
   7        3PX        -0.24608  -0.01669  -0.13992  -0.17032  -0.44859
   8        3PY        -0.06881   0.49060   0.41799  -0.04541  -0.18401
   9        3PZ         0.00000   0.00000   0.00000   0.00000   0.00000
  10        4XX         0.00035  -0.01087  -0.00967   0.00478  -0.00152
  11        4YY        -0.00013   0.00262   0.00191   0.00424   0.00223
  12        4ZZ         0.00228  -0.00303  -0.00380   0.00211   0.00277
  13        4XY         0.00822   0.00541   0.00738   0.01281   0.00200
  14        4XZ         0.00000   0.00000   0.00000   0.00000   0.00000
  15        4YZ         0.00000   0.00000   0.00000   0.00000   0.00000
  16 2   H  1S          0.02713  -0.02304  -0.02039   0.06516   0.01191
  17        2S          0.54750  -0.71238  -0.57669   0.80552   0.76910
  18 3   H  1S         -0.01182  -0.04594  -0.05172  -0.01566   0.00984
  19        2S         -0.17123  -0.85123  -0.99138   0.08627  -0.23811
  20 4   C  1S         -0.03219  -0.04507  -0.03377  -0.01328  -0.04713
  21        2S          0.04806   0.06438   0.03834   0.02800   0.08255
  22        2PX        -0.13293  -0.05962  -0.10891  -0.18297  -0.02751
  23        2PY        -0.05937  -0.09849  -0.08155   0.01689  -0.08128
  24        2PZ         0.00000   0.00000   0.00000   0.00000   0.00000
  25        3S          0.46544   0.83287   0.79403   0.21393   0.50869
  26        3PX        -0.30833  -0.13978  -0.16754  -0.69762   0.04488
  27        3PY        -0.07019  -0.24683  -0.38018   0.19393  -0.30921
  28        3PZ         0.00000   0.00000   0.00000   0.00000   0.00000
  29        4XX        -0.00555  -0.00782  -0.00377   0.01621  -0.01831
  30        4YY         0.00264   0.00147   0.00209  -0.01684   0.00811
  31        4ZZ        -0.00369  -0.00162  -0.00262  -0.00179   0.00000
  32        4XY        -0.01033  -0.00092  -0.00420  -0.00819  -0.00861
  33        4XZ         0.00000   0.00000   0.00000   0.00000   0.00000
  34        4YZ         0.00000   0.00000   0.00000   0.00000   0.00000
  35 5   H  1S         -0.04659  -0.01907  -0.01846   0.00562  -0.09310
  36        2S         -0.76312  -0.68317  -0.74807  -0.70263  -0.66044
  37 6   C  1S          0.03844  -0.01832  -0.00340  -0.05740   0.05877
  38        2S         -0.06115   0.03498   0.00793   0.07656  -0.08659
  39        2PX        -0.16578   0.08677   0.06878   0.03313  -0.08941
  40        2PY        -0.07417  -0.04207   0.06519   0.10488  -0.12807
  41        2PZ         0.00000   0.00000   0.00000   0.00000   0.00000
  42        3S         -0.49816   0.33855   0.11265   1.09757  -0.99264
  43        3PX        -0.39246   0.27357   0.53835  -0.03181  -0.34959
  44        3PY        -0.22847  -0.23274   0.07812   0.47542  -0.34588
  45        3PZ         0.00000   0.00000   0.00000   0.00000   0.00000
  46        4XX         0.00510   0.01115   0.01113  -0.01151   0.01445
  47        4YY        -0.00102  -0.01434  -0.00924   0.00319  -0.00575
  48        4ZZ         0.00392  -0.00064  -0.00006  -0.00167   0.00158
  49        4XY         0.01133  -0.00549   0.00639   0.00476  -0.00405
  50        4XZ         0.00000   0.00000   0.00000   0.00000   0.00000
  51        4YZ         0.00000   0.00000   0.00000   0.00000   0.00000
  52 7   H  1S          0.05453   0.00690   0.04215  -0.02837   0.04041
  53        2S          0.98163  -0.29181  -0.44699  -0.72643   1.03484
  54 8   C  1S         -0.03803   0.01846  -0.00404  -0.05750   0.06034
  55        2S          0.06062  -0.03527   0.00933   0.07743  -0.08971
  56        2PX        -0.16365   0.08723  -0.06927  -0.03158   0.09083
  57        2PY        -0.07320  -0.04034  -0.06695  -0.10542   0.12972
  58        2PZ         0.00000   0.00000   0.00000   0.00000   0.00000
  59        3S          0.49254  -0.34161   0.11512   1.08898  -1.00619
  60        3PX        -0.38175   0.27884  -0.53984   0.03693   0.35497
  61        3PY        -0.22805  -0.23061  -0.08755  -0.48544   0.35712
  62        3PZ         0.00000   0.00000   0.00000   0.00000   0.00000
  63        4XX        -0.00510  -0.01123   0.01087  -0.01155   0.01455
  64        4YY         0.00106   0.01444  -0.00913   0.00307  -0.00546
  65        4ZZ        -0.00384   0.00059  -0.00007  -0.00159   0.00155
  66        4XY        -0.01152   0.00531   0.00664   0.00502  -0.00398
  67        4XZ         0.00000   0.00000   0.00000   0.00000   0.00000
  68        4YZ         0.00000   0.00000   0.00000   0.00000   0.00000
  69 9   H  1S         -0.05481  -0.00669   0.04197  -0.02741   0.04143
  70        2S         -0.97070   0.29745  -0.45866  -0.72661   1.05929
  71 10  C  1S          0.03241   0.04536  -0.03250  -0.01219  -0.04738
  72        2S         -0.04796  -0.06447   0.03634   0.02624   0.08287
  73        2PX        -0.13445  -0.05964   0.10671   0.18338   0.02540
  74        2PY        -0.06152  -0.09949   0.08035  -0.01647   0.08292
  75        2PZ         0.00000   0.00000   0.00000   0.00000   0.00000
  76        3S         -0.47339  -0.84135   0.77535   0.19641   0.51287
  77        3PX        -0.31076  -0.14002   0.16004   0.69800  -0.04850
  78        3PY        -0.07665  -0.24786   0.37896  -0.18598   0.30560
  79        3PZ         0.00000   0.00000   0.00000   0.00000   0.00000
  80        4XX         0.00525   0.00778  -0.00359   0.01640  -0.01834
  81        4YY        -0.00236  -0.00148   0.00212  -0.01681   0.00812
  82        4ZZ         0.00380   0.00170  -0.00258  -0.00181  -0.00002
  83        4XY         0.01037   0.00113  -0.00425  -0.00799  -0.00850
  84        4XZ         0.00000   0.00000   0.00000   0.00000   0.00000
  85        4YZ         0.00000   0.00000   0.00000   0.00000   0.00000
  86 11  H  1S          0.04609   0.01931  -0.01792   0.00613  -0.09254
  87        2S          0.76964   0.68828  -0.72962  -0.69365  -0.66045
  88 12  C  1S         -0.01608   0.06571  -0.06764   0.05535   0.01817
  89        2S          0.02159  -0.10394   0.10202  -0.09062  -0.02433
  90        2PX        -0.11388  -0.02076   0.05717   0.10934   0.14670
  91        2PY        -0.02797   0.14287  -0.14139   0.01986   0.06425
  92        2PZ         0.00000   0.00000   0.00000   0.00000   0.00000
  93        3S          0.28158  -1.01850   1.14308  -0.84494  -0.21569
  94        3PX        -0.24423  -0.02456   0.14254   0.17507   0.43687
  95        3PY        -0.06659   0.49376  -0.41406   0.05229   0.18601
  96        3PZ         0.00000   0.00000   0.00000   0.00000   0.00000
  97        4XX        -0.00002   0.01100  -0.00976   0.00453  -0.00160
  98        4YY        -0.00009  -0.00272   0.00200   0.00443   0.00219
  99        4ZZ        -0.00219   0.00302  -0.00385   0.00204   0.00279
 100        4XY        -0.00832  -0.00527   0.00714   0.01282   0.00165
 101        4XZ         0.00000   0.00000   0.00000   0.00000   0.00000
 102        4YZ         0.00000   0.00000   0.00000   0.00000   0.00000
 103 13  H  1S         -0.02675   0.02282  -0.02044   0.06518   0.01045
 104        2S         -0.53699   0.71224  -0.58190   0.80901   0.75442
 105 14  H  1S          0.01255   0.04615  -0.05166  -0.01597   0.01062
 106        2S          0.18060   0.85556  -0.98781   0.08006  -0.23226
                          31        32        33        34        35
                           V         V         V         V         V
     Eigenvalues --     0.17645   0.19848   0.20572   0.29502   0.32629
   1 1   C  1S         -0.04650  -0.06124   0.02898   0.01941  -0.03196
   2        2S          0.06762   0.08437  -0.04452  -0.01923  -0.02840
   3        2PX        -0.19381   0.11679   0.22568  -0.16987  -0.09853
   4        2PY         0.00736   0.05646  -0.04203   0.06458  -0.04282
   5        2PZ         0.00000   0.00000   0.00000   0.00000   0.00000
   6        3S          0.81985   1.07952  -0.31169  -0.59002   1.99207
   7        3PX        -0.78093   0.43455   0.97148  -0.93092  -0.18643
   8        3PY        -0.14955  -0.10278  -0.08089   0.64038  -1.64402
   9        3PZ         0.00000   0.00000   0.00000   0.00000   0.00000
  10        4XX         0.00415   0.00049  -0.00312  -0.01288   0.01951
  11        4YY        -0.00661  -0.00717   0.00686   0.00957  -0.00735
  12        4ZZ        -0.00409  -0.00324   0.00203   0.00370  -0.00762
  13        4XY         0.01013  -0.01278  -0.00234  -0.02764  -0.02522
  14        4XZ         0.00000   0.00000   0.00000   0.00000   0.00000
  15        4YZ         0.00000   0.00000   0.00000   0.00000   0.00000
  16 2   H  1S          0.02007  -0.06813  -0.00738  -0.08328  -0.00929
  17        2S          0.50696  -1.01997  -0.70876   0.69390   0.39925
  18 3   H  1S         -0.05140   0.01543   0.03146   0.03987   0.12476
  19        2S         -1.15713   0.01430   1.25510  -0.92090   0.00138
  20 4   C  1S          0.08249   0.04114  -0.05767  -0.05933   0.01075
  21        2S         -0.13859  -0.05472   0.08794   0.09294   0.02036
  22        2PX        -0.08042   0.07056  -0.06311   0.31408   0.00333
  23        2PY         0.10821  -0.02100  -0.06190  -0.02994  -0.18464
  24        2PZ         0.00000   0.00000   0.00000   0.00000   0.00000
  25        3S         -1.21854  -0.82909   0.97837   1.00536  -1.33753
  26        3PX         0.12064   0.10531  -0.51140   1.36593  -0.06788
  27        3PY        -0.01429  -0.14296  -0.41172   0.40417  -2.16767
  28        3PZ         0.00000   0.00000   0.00000   0.00000   0.00000
  29        4XX         0.00582  -0.00477  -0.00801  -0.00873  -0.01038
  30        4YY         0.00793   0.00973  -0.00043  -0.00774  -0.00362
  31        4ZZ        -0.00016   0.00217  -0.00135   0.00556   0.00884
  32        4XY        -0.02315   0.01204   0.01940   0.01124   0.02108
  33        4XZ         0.00000   0.00000   0.00000   0.00000   0.00000
  34        4YZ         0.00000   0.00000   0.00000   0.00000   0.00000
  35 5   H  1S         -0.00435   0.05081  -0.01148   0.01510  -0.00205
  36        2S          0.59782   0.49602  -1.04916   1.05017  -0.75223
  37 6   C  1S         -0.04984   0.05795   0.02575   0.08242   0.05823
  38        2S          0.11742  -0.09630  -0.05588  -0.12393  -0.02562
  39        2PX        -0.13347  -0.13293   0.13780   0.12578   0.21239
  40        2PY         0.08032  -0.03399  -0.07157  -0.04135   0.00221
  41        2PZ         0.00000   0.00000   0.00000   0.00000   0.00000
  42        3S          0.12100  -0.95538  -0.03806  -1.22198  -2.35073
  43        3PX        -0.19792  -0.39886   0.44101   0.34050   0.59942
  44        3PY         0.41763   0.05075   0.02648  -0.56318   1.82372
  45        3PZ         0.00000   0.00000   0.00000   0.00000   0.00000
  46        4XX        -0.00858  -0.00056   0.01328   0.00316   0.00051
  47        4YY        -0.00900   0.01021  -0.00058   0.01367  -0.00715
  48        4ZZ         0.00444   0.00000  -0.00490  -0.00335   0.00429
  49        4XY         0.02796   0.01526   0.00447  -0.03479   0.00569
  50        4XZ         0.00000   0.00000   0.00000   0.00000   0.00000
  51        4YZ         0.00000   0.00000   0.00000   0.00000   0.00000
  52 7   H  1S          0.01624   0.08672   0.05452  -0.01776   0.01961
  53        2S         -0.12112   1.01480  -0.23850   0.43410  -0.67317
  54 8   C  1S          0.04877  -0.05813   0.02308  -0.08181  -0.06055
  55        2S         -0.11663   0.09726  -0.05138   0.12443   0.02405
  56        2PX        -0.13451  -0.12683  -0.14611   0.12227   0.22591
  57        2PY         0.07620  -0.03719   0.07076  -0.04090   0.00415
  58        2PZ         0.00000   0.00000   0.00000   0.00000   0.00000
  59        3S         -0.10239   0.94064   0.00630   1.19931   2.44669
  60        3PX        -0.20444  -0.38894  -0.46296   0.30666   0.72331
  61        3PY         0.41024   0.05519  -0.02263  -0.55041   1.76483
  62        3PZ         0.00000   0.00000   0.00000   0.00000   0.00000
  63        4XX         0.00850   0.00037   0.01342  -0.00287  -0.00148
  64        4YY         0.00875  -0.01047  -0.00128  -0.01375   0.00807
  65        4ZZ        -0.00446   0.00027  -0.00489   0.00330  -0.00451
  66        4XY        -0.02780  -0.01531   0.00359   0.03506  -0.00634
  67        4XZ         0.00000   0.00000   0.00000   0.00000   0.00000
  68        4YZ         0.00000   0.00000   0.00000   0.00000   0.00000
  69 9   H  1S         -0.01725  -0.08850   0.05032   0.01899  -0.02428
  70        2S          0.10536  -0.99874  -0.28882  -0.45183   0.72347
  71 10  C  1S         -0.08223  -0.03919  -0.06020   0.05849  -0.00438
  72        2S          0.13755   0.05148   0.09127  -0.09264  -0.02228
  73        2PX        -0.07958   0.06795   0.06462   0.31088   0.01765
  74        2PY         0.10633  -0.02193   0.06152  -0.02782  -0.16799
  75        2PZ         0.00000   0.00000   0.00000   0.00000   0.00000
  76        3S          1.21885   0.79706   1.02900  -0.97002   1.09822
  77        3PX         0.12423   0.07574   0.51048   1.33050   0.07945
  78        3PY        -0.01874  -0.14763   0.40595   0.41793  -2.10066
  79        3PZ         0.00000   0.00000   0.00000   0.00000   0.00000
  80        4XX        -0.00582   0.00495  -0.00824   0.00839   0.01196
  81        4YY        -0.00791  -0.00957  -0.00050   0.00849   0.00160
  82        4ZZ         0.00009  -0.00215  -0.00146  -0.00577  -0.00815
  83        4XY         0.02299  -0.01302   0.01887  -0.01132  -0.02035
  84        4XZ         0.00000   0.00000   0.00000   0.00000   0.00000
  85        4YZ         0.00000   0.00000   0.00000   0.00000   0.00000
  86 11  H  1S          0.00496  -0.05194  -0.01425  -0.01589   0.00635
  87        2S         -0.59472  -0.46002  -1.07112  -1.03829   0.68460
  88 12  C  1S          0.04657   0.06002   0.03230  -0.01883   0.02722
  89        2S         -0.06791  -0.08210  -0.04881   0.02039   0.02822
  90        2PX        -0.19177   0.13091  -0.22146  -0.16939  -0.10154
  91        2PY         0.00328   0.05842   0.04260   0.06735  -0.04959
  92        2PZ         0.00000   0.00000   0.00000   0.00000   0.00000
  93        3S         -0.82171  -1.06396  -0.37431   0.56652  -1.84410
  94        3PX        -0.77158   0.49630  -0.95383  -0.92313  -0.22647
  95        3PY        -0.16404  -0.09417   0.06024   0.62118  -1.51807
  96        3PZ         0.00000   0.00000   0.00000   0.00000   0.00000
  97        4XX        -0.00394  -0.00062  -0.00319   0.01205  -0.01764
  98        4YY         0.00645   0.00711   0.00725  -0.00891   0.00595
  99        4ZZ         0.00406   0.00322   0.00223  -0.00349   0.00678
 100        4XY        -0.01014   0.01272  -0.00200   0.02778   0.02518
 101        4XZ         0.00000   0.00000   0.00000   0.00000   0.00000
 102        4YZ         0.00000   0.00000   0.00000   0.00000   0.00000
 103 13  H  1S         -0.01965   0.06846  -0.00429   0.08292   0.01433
 104        2S         -0.50164   1.07332  -0.66077  -0.67447  -0.44212
 105 14  H  1S          0.05081  -0.01639   0.03109  -0.03953  -0.12097
 106        2S          1.14556  -0.08272   1.26049   0.91855   0.03875
                          36        37        38        39        40
                           V         V         V         V         V
     Eigenvalues --     0.32767   0.35991   0.39112   0.47928   0.49313
   1 1   C  1S          0.04997  -0.03379   0.03358   0.01006   0.00972
   2        2S          0.00838   0.01374  -0.09473   0.12366  -0.12823
   3        2PX        -0.05240  -0.05769  -0.06365  -0.02651  -0.16598
   4        2PY        -0.10177  -0.13485   0.15433  -0.37331   0.21557
   5        2PZ         0.00000   0.00000   0.00000   0.00000   0.00000
   6        3S         -1.44328   1.49734  -0.38624   0.12686   0.18129
   7        3PX        -0.81984  -0.47986   0.34747  -0.04187   0.09999
   8        3PY         1.19073  -1.67366   0.85735   0.69672  -0.22296
   9        3PZ         0.00000   0.00000   0.00000   0.00000   0.00000
  10        4XX        -0.02303   0.02224  -0.01117  -0.02571  -0.00082
  11        4YY         0.01898  -0.01999   0.02176   0.04187   0.00187
  12        4ZZ         0.00941  -0.00463  -0.00663   0.00538  -0.00720
  13        4XY        -0.00457  -0.00667  -0.01407  -0.00679  -0.06253
  14        4XZ         0.00000   0.00000   0.00000   0.00000   0.00000
  15        4YZ         0.00000   0.00000   0.00000   0.00000   0.00000
  16 2   H  1S         -0.04309   0.07034  -0.09626  -0.11537  -0.14950
  17        2S          0.67870   0.79276  -0.49219  -0.02874   0.11883
  18 3   H  1S         -0.02900   0.08160   0.01040  -0.02347   0.18242
  19        2S         -0.48920   0.04509  -0.13623  -0.07791  -0.21915
  20 4   C  1S         -0.06646   0.03273  -0.02185   0.00708  -0.04053
  21        2S          0.01127  -0.06228   0.00354   0.02462   0.11699
  22        2PX         0.15659   0.08113  -0.15474  -0.12137   0.14247
  23        2PY         0.16609  -0.16290   0.16648   0.33041  -0.12746
  24        2PZ         0.00000   0.00000   0.00000   0.00000   0.00000
  25        3S          2.54213  -1.03408   0.77633   0.46355  -0.23477
  26        3PX         1.56227   0.63100  -0.71705   0.37353   0.07930
  27        3PY         0.39582  -1.87678   0.40479  -0.73112   0.04275
  28        3PZ         0.00000   0.00000   0.00000   0.00000   0.00000
  29        4XX        -0.01514  -0.01283   0.03191  -0.03909  -0.00170
  30        4YY         0.02218   0.01357  -0.03197   0.06238  -0.04422
  31        4ZZ        -0.00921  -0.00113  -0.00430  -0.01277   0.02309
  32        4XY        -0.00733   0.00258   0.01690   0.00660   0.06004
  33        4XZ         0.00000   0.00000   0.00000   0.00000   0.00000
  34        4YZ         0.00000   0.00000   0.00000   0.00000   0.00000
  35 5   H  1S         -0.04170  -0.02017   0.07344  -0.02058   0.14727
  36        2S          0.74580  -0.02110  -0.63637  -0.01106   0.04163
  37 6   C  1S          0.02674   0.01196   0.06149   0.00173   0.03231
  38        2S          0.01256  -0.05429  -0.07185   0.12424   0.05011
  39        2PX         0.19134   0.15815  -0.02799   0.11733   0.30000
  40        2PY         0.03865   0.07712   0.28565  -0.06208  -0.43236
  41        2PZ         0.00000   0.00000   0.00000   0.00000   0.00000
  42        3S         -1.17052  -0.02596  -2.15552  -1.16971   0.06779
  43        3PX         1.75421   1.59654  -0.12664   0.07458  -0.07411
  44        3PY        -0.64337   0.04230   2.35754   0.37293   0.54721
  45        3PZ         0.00000   0.00000   0.00000   0.00000   0.00000
  46        4XX         0.01219   0.02319  -0.03770   0.00788  -0.00507
  47        4YY        -0.01262  -0.01530   0.03801  -0.02850   0.05985
  48        4ZZ         0.00196  -0.00446  -0.00027   0.01174  -0.02334
  49        4XY         0.01019   0.00598   0.00720   0.06935  -0.00270
  50        4XZ         0.00000   0.00000   0.00000   0.00000   0.00000
  51        4YZ         0.00000   0.00000   0.00000   0.00000   0.00000
  52 7   H  1S          0.04095  -0.00283  -0.04987   0.23620   0.00287
  53        2S         -0.82317  -1.35430  -0.37802  -0.05637  -0.16262
  54 8   C  1S          0.02316   0.01396  -0.06166  -0.00261   0.03179
  55        2S          0.01243  -0.05640   0.07207  -0.12795   0.04880
  56        2PX        -0.17237  -0.15928  -0.02756   0.12256  -0.30386
  57        2PY        -0.03718  -0.07755   0.28294  -0.06523   0.43711
  58        2PZ         0.00000   0.00000   0.00000   0.00000   0.00000
  59        3S         -0.98952  -0.09379   2.15482   1.18034   0.08721
  60        3PX        -1.70019  -1.60878  -0.12041   0.09293   0.07875
  61        3PY         0.79839  -0.07661   2.35956   0.37309  -0.53901
  62        3PZ         0.00000   0.00000   0.00000   0.00000   0.00000
  63        4XX         0.01211   0.02302   0.03801  -0.00897  -0.00467
  64        4YY        -0.01154  -0.01513  -0.03833   0.02768   0.05876
  65        4ZZ         0.00154  -0.00451   0.00036  -0.01139  -0.02326
  66        4XY         0.00907   0.00577  -0.00719  -0.06918  -0.00355
  67        4XZ         0.00000   0.00000   0.00000   0.00000   0.00000
  68        4YZ         0.00000   0.00000   0.00000   0.00000   0.00000
  69 9   H  1S          0.03853  -0.00366   0.04893  -0.23890   0.00224
  70        2S         -0.74706  -1.34928   0.38811   0.07278  -0.16237
  71 10  C  1S         -0.06739   0.03267   0.02193  -0.00674  -0.04110
  72        2S          0.01111  -0.06190  -0.00245  -0.02654   0.11394
  73        2PX        -0.16151  -0.08684  -0.15756  -0.11496  -0.14437
  74        2PY        -0.18066   0.16776   0.16715   0.32481   0.12759
  75        2PZ         0.00000   0.00000   0.00000   0.00000   0.00000
  76        3S          2.64378  -1.05619  -0.79268  -0.46040  -0.23304
  77        3PX        -1.57378  -0.66606  -0.71891   0.38852  -0.07634
  78        3PY        -0.59812   1.89835   0.39806  -0.73807  -0.04922
  79        3PZ         0.00000   0.00000   0.00000   0.00000   0.00000
  80        4XX        -0.01413  -0.01275  -0.03139   0.03968  -0.00311
  81        4YY         0.02224   0.01308   0.03139  -0.06289  -0.04447
  82        4ZZ        -0.00964  -0.00087   0.00447   0.01245   0.02345
  83        4XY        -0.00934   0.00282  -0.01784  -0.00575   0.06035
  84        4XZ         0.00000   0.00000   0.00000   0.00000   0.00000
  85        4YZ         0.00000   0.00000   0.00000   0.00000   0.00000
  86 11  H  1S         -0.04056  -0.01926  -0.07480   0.02224   0.14481
  87        2S          0.82944  -0.01119   0.64049   0.00138   0.04247
  88 12  C  1S          0.05247  -0.03460  -0.03361  -0.01001   0.00971
  89        2S          0.01095   0.01293   0.09447  -0.12363  -0.13193
  90        2PX         0.04513   0.05791  -0.06656  -0.02317   0.16773
  91        2PY         0.09617   0.13179   0.15220  -0.37375  -0.22014
  92        2PZ         0.00000   0.00000   0.00000   0.00000   0.00000
  93        3S         -1.60416   1.53322   0.39188  -0.13354   0.18319
  94        3PX         0.83271   0.46721   0.34210  -0.05928  -0.10306
  95        3PY        -1.31985   1.70468   0.86721   0.68420   0.22956
  96        3PZ         0.00000   0.00000   0.00000   0.00000   0.00000
  97        4XX        -0.02439   0.02278   0.01123   0.02511   0.00034
  98        4YY         0.01931  -0.02050  -0.02168  -0.04130   0.00037
  99        4ZZ         0.01012  -0.00473   0.00661  -0.00541  -0.00734
 100        4XY        -0.00374  -0.00700   0.01464   0.00840  -0.06228
 101        4XZ         0.00000   0.00000   0.00000   0.00000   0.00000
 102        4YZ         0.00000   0.00000   0.00000   0.00000   0.00000
 103 13  H  1S         -0.04336   0.06884   0.09795   0.11432  -0.14856
 104        2S          0.64994   0.79537   0.49244   0.01623   0.11813
 105 14  H  1S         -0.03828   0.08468  -0.01049   0.02174   0.18160
 106        2S         -0.50605   0.03652   0.13305   0.08373  -0.21831
                          41        42        43        44        45
                           V         V         V         V         V
     Eigenvalues --     0.52905   0.55662   0.56887   0.60466   0.60484
   1 1   C  1S          0.00000   0.00000  -0.00577   0.00082   0.00000
   2        2S          0.00000   0.00000   0.13172  -0.36083   0.00000
   3        2PX         0.00000   0.00000  -0.20789  -0.02220   0.00000
   4        2PY         0.00000   0.00000  -0.26799   0.21254   0.00000
   5        2PZ         0.37457  -0.60398   0.00000   0.00000  -0.62586
   6        3S          0.00000   0.00000   0.37585   0.20738   0.00000
   7        3PX         0.00000   0.00000   0.52201   0.08127   0.00000
   8        3PY         0.00000   0.00000   0.14738   0.11516   0.00000
   9        3PZ        -0.33379   0.57615   0.00000   0.00000   0.71510
  10        4XX         0.00000   0.00000   0.00330  -0.05027   0.00000
  11        4YY         0.00000   0.00000   0.02018  -0.02213   0.00000
  12        4ZZ         0.00000   0.00000  -0.00360   0.01245   0.00000
  13        4XY         0.00000   0.00000  -0.03658   0.00007   0.00000
  14        4XZ        -0.00492   0.00233   0.00000   0.00000  -0.00585
  15        4YZ        -0.02615   0.02817   0.00000   0.00000   0.01168
  16 2   H  1S          0.00000   0.00000  -0.18625  -0.13571   0.00000
  17        2S          0.00000   0.00000  -0.20569  -0.12398   0.00000
  18 3   H  1S          0.00000   0.00000   0.16135  -0.11581   0.00000
  19        2S          0.00000   0.00000   0.14310  -0.03790   0.00000
  20 4   C  1S          0.00000   0.00000   0.04626  -0.03119   0.00000
  21        2S          0.00000   0.00000  -0.01618  -0.48980   0.00000
  22        2PX         0.00000   0.00000  -0.35502  -0.12205   0.00000
  23        2PY         0.00000   0.00000   0.20840   0.07450   0.00000
  24        2PZ         0.39606  -0.36775   0.00000   0.00000   0.06731
  25        3S          0.00000   0.00000  -0.23313   0.90975   0.00000
  26        3PX         0.00000   0.00000   0.32843  -0.01630   0.00000
  27        3PY         0.00000   0.00000  -0.64130   0.18407   0.00000
  28        3PZ        -0.26299   0.26287   0.00000   0.00000  -0.11971
[...]
 106        2S         -0.00003   0.00008   0.00040   0.00000   0.00000
                          86        87        88        89        90
  86 11  H  1S          0.21868
  87        2S          0.11137   0.15061
  88 12  C  1S          0.00000   0.00027   2.05318
  89        2S         -0.00026  -0.00419  -0.01386   0.32149
  90        2PX        -0.00015  -0.00200   0.00000   0.00000   0.41755
  91        2PY        -0.00067  -0.00883   0.00000   0.00000   0.00000
  92        2PZ         0.00000   0.00000   0.00000   0.00000   0.00000
  93        3S         -0.00408  -0.01394  -0.03063   0.22234   0.00000
  94        3PX        -0.00014  -0.00161   0.00000   0.00000   0.08291
  95        3PY        -0.00409  -0.01310   0.00000   0.00000   0.00000
  96        3PZ         0.00000   0.00000   0.00000   0.00000   0.00000
  97        4XX         0.00001   0.00028  -0.00176   0.00437   0.00000
  98        4YY         0.00004  -0.00004  -0.00147  -0.00052   0.00000
  99        4ZZ         0.00000   0.00011  -0.00089  -0.01203   0.00000
 100        4XY         0.00011   0.00043   0.00000   0.00000   0.00000
 101        4XZ         0.00000   0.00000   0.00000   0.00000   0.00000
 102        4YZ         0.00000   0.00000   0.00000   0.00000   0.00000
 103 13  H  1S          0.00000   0.00043  -0.00221   0.03447   0.07527
 104        2S          0.00047   0.00486  -0.00129   0.01752   0.04421
 105 14  H  1S         -0.00002  -0.00094  -0.00220   0.03423   0.07564
 106        2S         -0.00116  -0.00458  -0.00141   0.01834   0.04492
                          91        92        93        94        95
  91        2PY         0.42168
  92        2PZ         0.00000   0.32727
  93        3S          0.00000   0.00000   0.25014
  94        3PX         0.00000   0.00000   0.00000   0.05182
  95        3PY         0.09122   0.00000   0.00000   0.00000   0.06324
  96        3PZ         0.00000   0.14202   0.00000   0.00000   0.00000
  97        4XX         0.00000   0.00000   0.00360   0.00000   0.00000
  98        4YY         0.00000   0.00000   0.00006   0.00000   0.00000
  99        4ZZ         0.00000   0.00000  -0.00843   0.00000   0.00000
 100        4XY         0.00000   0.00000   0.00000   0.00000   0.00000
 101        4XZ         0.00000   0.00000   0.00000   0.00000   0.00000
 102        4YZ         0.00000   0.00000   0.00000   0.00000   0.00000
 103 13  H  1S          0.02582   0.00000   0.04126   0.03465   0.01388
 104        2S          0.01516   0.00000   0.02223   0.03207   0.01228
 105 14  H  1S          0.02598   0.00000   0.03503   0.03571   0.01558
 106        2S          0.01463   0.00000   0.01477   0.03366   0.01357
                          96        97        98        99       100
  96        3PZ         0.19156
  97        4XX         0.00000   0.00135
  98        4YY         0.00000  -0.00012   0.00060
  99        4ZZ         0.00000  -0.00006   0.00005   0.00101
 100        4XY         0.00000   0.00000   0.00000   0.00000   0.00174
 101        4XZ         0.00000   0.00000   0.00000   0.00000   0.00000
 102        4YZ         0.00000   0.00000   0.00000   0.00000   0.00000
 103 13  H  1S          0.00000   0.00358  -0.00068  -0.00076   0.00349
 104        2S          0.00000   0.00267  -0.00101  -0.00068   0.00076
 105 14  H  1S          0.00000   0.00357  -0.00075  -0.00076   0.00343
 106        2S          0.00000   0.00256  -0.00105  -0.00075   0.00073
                         101       102       103       104       105
 101        4XZ         0.00000
 102        4YZ         0.00000   0.00048
 103 13  H  1S          0.00000   0.00000   0.21595
 104        2S          0.00000   0.00000   0.10554   0.13443
 105 14  H  1S          0.00000   0.00000  -0.00052  -0.00790   0.21580
 106        2S          0.00000   0.00000  -0.00807  -0.02403   0.10550
                         106
 106        2S          0.13267
     Gross orbital populations:
                           1
   1 1   C  1S          1.99171
   2        2S          0.70519
   3        2PX         0.74375
   4        2PY         0.76387
   5        2PZ         0.55414
   6        3S          0.59092
   7        3PX         0.27442
   8        3PY         0.24149
   9        3PZ         0.46811
  10        4XX         0.01560
  11        4YY         0.00285
  12        4ZZ        -0.02581
  13        4XY         0.01384
  14        4XZ         0.00002
  15        4YZ         0.00423
  16 2   H  1S          0.53459
  17        2S          0.32183
  18 3   H  1S          0.53440
  19        2S          0.32286
  20 4   C  1S          1.99183
  21        2S          0.71299
  22        2PX         0.71244
  23        2PY         0.76742
  24        2PZ         0.54862
  25        3S          0.52234
  26        3PX         0.20729
  27        3PY         0.18672
  28        3PZ         0.42029
  29        4XX         0.00928
  30        4YY         0.00173
  31        4ZZ        -0.02443
  32        4XY         0.01427
  33        4XZ         0.00163
  34        4YZ         0.00630
  35 5   H  1S          0.53767
  36        2S          0.32921
  37 6   C  1S          1.99183
  38        2S          0.71141
  39        2PX         0.71403
  40        2PY         0.76602
  41        2PZ         0.55625
  42        3S          0.53818
  43        3PX         0.20553
  44        3PY         0.20304
  45        3PZ         0.43203
  46        4XX         0.00979
  47        4YY         0.00247
  48        4ZZ        -0.02441
  49        4XY         0.01353
  50        4XZ         0.00161
  51        4YZ         0.00620
  52 7   H  1S          0.53744
  53        2S          0.33094
  54 8   C  1S          1.99183
  55        2S          0.71132
  56        2PX         0.71376
  57        2PY         0.76615
  58        2PZ         0.55654
  59        3S          0.53781
  60        3PX         0.20562
  61        3PY         0.20266
  62        3PZ         0.43207
  63        4XX         0.00969
  64        4YY         0.00253
  65        4ZZ        -0.02441
  66        4XY         0.01357
  67        4XZ         0.00162
  68        4YZ         0.00616
  69 9   H  1S          0.53730
  70        2S          0.33101
  71 10  C  1S          1.99183
  72        2S          0.71299
  73        2PX         0.71205
  74        2PY         0.76781
  75        2PZ         0.54857
  76        3S          0.52235
  77        3PX         0.20755
  78        3PY         0.18678
  79        3PZ         0.42050
  80        4XX         0.00919
  81        4YY         0.00176
  82        4ZZ        -0.02444
  83        4XY         0.01432
  84        4XZ         0.00166
  85        4YZ         0.00629
  86 11  H  1S          0.53782
  87        2S          0.32951
  88 12  C  1S          1.99171
  89        2S          0.70509
  90        2PX         0.74364
  91        2PY         0.76378
  92        2PZ         0.55441
  93        3S          0.59061
  94        3PX         0.27470
  95        3PY         0.24150
  96        3PZ         0.46850
  97        4XX         0.01560
  98        4YY         0.00283
  99        4ZZ        -0.02582
 100        4XY         0.01385
 101        4XZ         0.00002
 102        4YZ         0.00423
 103 13  H  1S          0.53460
 104        2S          0.32217
 105 14  H  1S          0.53440
 106        2S          0.32290
          Condensed to atoms (all electrons):
              1          2          3          4          5          6
     1  C    5.056230   0.372766   0.365372   0.629555  -0.051607  -0.026613
     2  H    0.372766   0.561033  -0.040468  -0.036120   0.005708  -0.011370
     3  H    0.365372  -0.040468   0.559497  -0.024301  -0.006562   0.003903
     4  C    0.629555  -0.036120  -0.024301   4.799254   0.368906   0.407961
     5  H   -0.051607   0.005708  -0.006562   0.368906   0.591177  -0.044668
     6  C   -0.026613  -0.011370   0.003903   0.407961  -0.044668   4.900327
     7  H   -0.003498   0.004410  -0.000012  -0.043525   0.003702   0.365600
     8  C    0.001937   0.000451  -0.000169  -0.018241  -0.003818   0.603904
     9  H    0.000372   0.000014  -0.000006  -0.008135   0.003911  -0.052123
    10  C   -0.000185  -0.000003   0.000002   0.003424   0.000126  -0.017711
    11  H   -0.000003   0.000002   0.000000   0.000133   0.000004  -0.003866
    12  C    0.000003   0.000000   0.000000  -0.000184  -0.000002   0.001880
    13  H    0.000000   0.000000   0.000000  -0.000002   0.000001   0.000445
    14  H    0.000000   0.000000   0.000000   0.000002   0.000000  -0.000166
              7          8          9         10         11         12
     1  C   -0.003498   0.001937   0.000372  -0.000185  -0.000003   0.000003
     2  H    0.004410   0.000451   0.000014  -0.000003   0.000002   0.000000
     3  H   -0.000012  -0.000169  -0.000006   0.000002   0.000000   0.000000
     4  C   -0.043525  -0.018241  -0.008135   0.003424   0.000133  -0.000184
     5  H    0.003702  -0.003818   0.003911   0.000126   0.000004  -0.000002
     6  C    0.365600   0.603904  -0.052123  -0.017711  -0.003866   0.001880
     7  H    0.591941  -0.052324   0.005964  -0.008299   0.004025   0.000387
     8  C   -0.052324   4.900640   0.365538   0.407966  -0.044847  -0.026713
     9  H    0.005964   0.365538   0.591622  -0.043432   0.003705  -0.003452
    10  C   -0.008299   0.407966  -0.043432   4.798841   0.368931   0.629779
    11  H    0.004025  -0.044847   0.003705   0.368931   0.592035  -0.051854
    12  C    0.000387  -0.026713  -0.003452   0.629779  -0.051854   5.056671
    13  H    0.000014  -0.011299   0.004353  -0.036126   0.005753   0.372686
    14  H   -0.000006   0.003904  -0.000017  -0.024106  -0.006693   0.365447
             13         14
     1  C    0.000000   0.000000
     2  H    0.000000   0.000000
     3  H    0.000000   0.000000
     4  C   -0.000002   0.000002
     5  H    0.000001   0.000000
     6  C    0.000445  -0.000166
     7  H    0.000014  -0.000006
     8  C   -0.011299   0.003904
     9  H    0.004353  -0.000017
    10  C   -0.036126  -0.024106
    11  H    0.005753  -0.006693
    12  C    0.372686   0.365447
    13  H    0.561468  -0.040519
    14  H   -0.040519   0.559453
 Mulliken atomic charges:
              1
     1  C   -0.344330
     2  H    0.143577
     3  H    0.142743
     4  C   -0.078727
     5  H    0.133120
     6  C   -0.127504
     7  H    0.131621
     8  C   -0.126932
     9  H    0.131685
    10  C   -0.079208
    11  H    0.132674
    12  C   -0.344646
    13  H    0.143225
    14  H    0.142702
 Sum of Mulliken atomic charges =   0.00000
 Mulliken charges with hydrogens summed into heavy atoms:
              1
     1  C   -0.058010
     4  C    0.054393
     6  C    0.004117
     8  C    0.004753
    10  C    0.053467
    12  C   -0.058719
 Sum of Mulliken charges with hydrogens summed into heavy atoms =   0.00000
 Electronic spatial extent (au):  <R**2>=            935.0256
 Charge=              0.0000 electrons
 Dipole moment (field-independent basis, Debye):
    X=             -0.0069    Y=              0.0094    Z=              0.0000  Tot=              0.0117
 Quadrupole moment (field-independent basis, Debye-Ang):
   XX=            -32.5204   YY=            -34.1711   ZZ=            -41.0195
   XY=              0.5628   XZ=              0.0000   YZ=              0.0000
 Traceless Quadrupole moment (field-independent basis, Debye-Ang):
   XX=              3.3833   YY=              1.7326   ZZ=             -5.1159
   XY=              0.5628   XZ=              0.0000   YZ=              0.0000
 Octapole moment (field-independent basis, Debye-Ang**2):
  XXX=             -0.0222  YYY=              0.0892  ZZZ=              0.0000  XYY=             -0.0473
  XXY=              0.0050  XXZ=              0.0000  XZZ=             -0.0066  YZZ=              0.0092
  YYZ=              0.0000  XYZ=              0.0000
 Hexadecapole moment (field-independent basis, Debye-Ang**3):
 XXXX=           -313.6460 YYYY=           -856.1689 ZZZZ=            -42.8397 XXXY=            194.9494
 XXXZ=              0.0000 YYYX=            204.1509 YYYZ=              0.0000 ZZZX=              0.0000
 ZZZY=              0.0000 XXYY=           -187.8010 XXZZ=            -71.2751 YYZZ=           -176.1261
 XXYZ=              0.0000 YYXZ=              0.0000 ZZXY=             81.7821
 N-N= 1.911474013585D+02 E-N=-9.216858352920D+02  KE= 2.308806381271D+02
 Symmetry A'   KE= 2.245874958797D+02
 Symmetry A"   KE= 6.293142247350D+00
 Orbital energies and kinetic energies (alpha):
                                 1                 2
   1         O               -10.197602         15.882004
   2         O               -10.197329         15.881955
   3         O               -10.195683         15.876055
   4         O               -10.194937         15.888302
   5         O               -10.180140         15.879194
   6         O               -10.179844         15.879194
   7         O                -0.803426          1.487829
   8         O                -0.765939          1.516103
   9         O                -0.716162          1.582209
  10         O                -0.603451          1.444761
  11         O                -0.562774          1.100536
  12         O                -0.556465          1.349240
  13         O                -0.475957          1.089088
  14         O                -0.459729          1.070110
  15         O                -0.422006          1.340199
  16         O                -0.403808          1.176692
  17         O                -0.382802          1.317406
  18         O                -0.371289          1.157563
  19         O                -0.336220          1.375308
  20         O                -0.325087          0.960570
  21         O                -0.277514          1.028404
  22         O                -0.211680          1.157597
  23         V                -0.034608          1.271423
  24         V                 0.039249          1.381269
  25         V                 0.084543          1.352972
  26         V                 0.108104          0.864310
  27         V                 0.125614          0.960657
  28         V                 0.132602          0.937311
  29         V                 0.145009          1.069807
  30         V                 0.156988          1.053882
  31         V                 0.176446          1.436461
  32         V                 0.198483          1.167576
  33         V                 0.205719          1.119099
  34         V                 0.295016          1.770420
  35         V                 0.326289          1.222494
  36         V                 0.327670          1.301512
  37         V                 0.359908          1.215249
  38         V                 0.391122          1.704464
  39         V                 0.479280          1.512779
  40         V                 0.493131          2.144784
  41         V                 0.529045          1.999646
  42         V                 0.556623          2.051568
  43         V                 0.568868          1.909736
  44         V                 0.604663          1.589089
  45         V                 0.604842          2.127776
  46         V                 0.610510          2.218330
  47         V                 0.612985          1.770179
  48         V                 0.643021          2.086943
  49         V                 0.670210          2.263202
  50         V                 0.689250          2.626905
  51         V                 0.695240          2.248282
  52         V                 0.703931          2.180941
  53         V                 0.836404          2.745893
  54         V                 0.864189          2.762571
  55         V                 0.873029          2.717518
  56         V                 0.882563          2.543300
  57         V                 0.891268          2.639957
  58         V                 0.893302          2.783098
  59         V                 0.930658          2.685315
  60         V                 0.944823          2.642283
  61         V                 0.974954          2.496432
  62         V                 0.979330          2.551408
  63         V                 1.055393          2.199051
  64         V                 1.065502          2.124005
  65         V                 1.088892          2.266324
  66         V                 1.138498          2.175379
  67         V                 1.251431          2.367174
  68         V                 1.281442          2.414954
  69         V                 1.326850          2.473452
  70         V                 1.348758          2.490507
  71         V                 1.361962          2.493676
  72         V                 1.433276          2.622287
  73         V                 1.438903          2.610355
  74         V                 1.496610          2.649973
  75         V                 1.583533          2.733059
  76         V                 1.689980          2.820301
  77         V                 1.736674          2.887781
  78         V                 1.761365          3.173065
  79         V                 1.763358          3.087855
  80         V                 1.912941          3.269836
  81         V                 1.982466          3.342815
  82         V                 2.000012          3.151016
  83         V                 2.014771          3.349626
  84         V                 2.018423          3.402412
  85         V                 2.122527          3.412395
  86         V                 2.167301          3.563994
  87         V                 2.172726          3.363396
  88         V                 2.230208          3.711367
  89         V                 2.300790          3.698254
  90         V                 2.320458          3.723180
  91         V                 2.381329          3.613249
  92         V                 2.417200          3.652848
  93         V                 2.418580          3.660170
  94         V                 2.439753          3.963931
  95         V                 2.632764          4.410709
  96         V                 2.734189          4.632879
  97         V                 2.785620          4.323847
  98         V                 2.799144          4.550606
  99         V                 2.967928          4.719876
 100         V                 2.970680          4.667588
 101         V                 4.055991         10.084712
 102         V                 4.080674         10.083917
 103         V                 4.148143         10.089244
 104         V                 4.198069         10.020105
 105         V                 4.350883         10.096418
 106         V                 4.479572         10.110184
 Total kinetic energy from orbitals= 2.308806381271D+02
 1\1\GINC-NISER-THINKCENTRE-M93P\SP\RB3LYP\6-31G(d)\C6H8\STUDENT\02-Mar
 -2021\0\\# pop=full b3lyp/6-31* geom=connectivity\\Title Card Required
 \\0,1\C,0,-3.85964927,-1.19883039,0.\H,0,-3.32648552,-2.12653531,0.\H,
 0,-4.92964927,-1.19883039,0.\C,0,-3.18437496,-0.02385309,0.\H,0,-3.717
 53871,0.90385183,0.\C,0,-1.64437496,-0.02385309,0.\H,0,-1.11121121,-0.
 95155801,0.\C,0,-0.96213156,1.14709139,0.\H,0,-1.48977403,2.07794767,0
 .\C,0,0.57784126,1.13794163,0.\H,0,1.10548373,0.20708535,0.\C,0,1.2670
 2967,2.30481197,0.\H,0,0.7449271,3.23878676,0.\H,0,2.33695412,2.292097
 59,0.\\Version=EM64L-G09RevC.01\State=1-A'\HF=-233.3848221\RMSD=5.493e
 -09\Dipole=-0.004228,-0.0017757,0.\Quadrupole=1.8298917,1.9736297,-3.8
 035214,-0.739228,0.,0.\PG=CS [SG(C6H8)]\\@


 ADVERTISING--  HE WHO HAS SOMETHING TO SELL AND GOES AND WHISPERS
                IN A WELL, IS NOT SO APT TO GET THE DOLLARS AS HE
                WHO CLIMBS A TREE AND HOLLERS.

                   -- FROM THE BACK OF A SUGAR PACKET
 Job cpu time:  0 days  0 hours  0 minutes  5.8 seconds.
 File lengths (MBytes):  RWF=     10 Int=      0 D2E=      0 Chk=      2 Scr=      1
 Normal termination of Gaussian 09 at Tue Mar  2 12:11:52 2021.
