 Entering Gaussian System, Link 0=g09
 Input=octa1.com
 Output=octa1.log
 Initial command:
 /home/student/g09/l1.exe /home/student/singh/Gau-21115.inp -scrdir=/home/student/singh/
 Entering Link 1 = /home/student/g09/l1.exe PID=     21117.
  
 Copyright (c) 1988,1990,1992,1993,1995,1998,2003,2009,2011,
            Gaussian, Inc.  All Rights Reserved.
  
 This is part of the Gaussian(R) 09 program.  It is based on
 the Gaussian(R) 03 system (copyright 2003, Gaussian, Inc.),
 the Gaussian(R) 98 system (copyright 1998, Gaussian, Inc.),
 the Gaussian(R) 94 system (copyright 1995, Gaussian, Inc.),
 the Gaussian 92(TM) system (copyright 1992, Gaussian, Inc.),
 the Gaussian 90(TM) system (copyright 1990, Gaussian, Inc.),
 the Gaussian 88(TM) system (copyright 1988, Gaussian, Inc.),
 the Gaussian 86(TM) system (copyright 1986, Carnegie Mellon
 University), and the Gaussian 82(TM) system (copyright 1983,
 Carnegie Mellon University). Gaussian is a federally registered
 trademark of Gaussian, Inc.
  
 This software contains proprietary and confidential information,
 including trade secrets, belonging to Gaussian, Inc.
  
 This software is provided under written license and may be
 used, copied, transmitted, or stored only in accord with that
 written license.
  
 The following legend is applicable only to US Government
 contracts under FAR:
  
                    RESTRICTED RIGHTS LEGEND
  
 Use, reproduction and disclosure by the US Government is
 subject to restrictions as set forth in subparagraphs (a)
 and (c) of the Commercial Computer Software - Restricted
 Rights clause in FAR 52.227-19.
  
 Gaussian, Inc.
 340 Quinnipiac St., Bldg. 40, Wallingford CT 06492
  
  
 ---------------------------------------------------------------
 Warning -- This program may not be used in any manner that
 competes with the business of Gaussian, Inc. or will provide
 assistance to any competitor of Gaussian, Inc.  The licensee
 of this program is prohibited from giving any competitor of
 Gaussian, Inc. access to this program.  By using this program,
 the user acknowledges that Gaussian, Inc. is engaged in the
 business of creating and licensing software in the field of
 computational chemistry and represents and warrants to the
 licensee that it is not a competitor of Gaussian, Inc. and that
 it will not use this program in any manner prohibited above.
 ---------------------------------------------------------------
  

 Cite this work as:
 Gaussian 09, Revision C.01,
 M. J. Frisch, G. W. Trucks, H. B. Schlegel, G. E. Scuseria, 
 M. A. Robb, J. R. Cheeseman, G. Scalmani, V. Barone, B. Mennucci, 
 G. A. Petersson, H. Nakatsuji, M. Caricato, X. Li, H. P. Hratchian, 
 A. F. Izmaylov, J. Bloino, G. Zheng, J. L. Sonnenberg, M. Hada, 
 M. Ehara, K. Toyota, R. Fukuda, J. Hasegawa, M. Ishida, T. Nakajima, 
 Y. Honda, O. Kitao, H. Nakai, T. Vreven, J. A. Montgomery, Jr., 
 J. E. Peralta, F. Ogliaro, M. Bearpark, J. J. Heyd, E. Brothers, 
 K. N. Kudin, V. N. Staroverov, T. Keith, R. Kobayashi, J. Normand, 
 K. Raghavachari, A. Rendell, J. C. Burant, S. S. Iyengar, J. Tomasi, 
 M. Cossi, N. Rega, J. M. Millam, M. Klene, J. E. Knox, J. B. Cross, 
 V. Bakken, C. Adamo, J. Jaramillo, R. Gomperts, R. E. Stratmann, 
 O. Yazyev, A. J. Austin, R. Cammi, C. Pomelli, J. W. Ochterski, 
 R. L. Martin, K. Morokuma, V. G. Zakrzewski, G. A. Voth, 
 P. Salvador, J. J. Dannenberg, S. Dapprich, A. D. Daniels, 
 O. Farkas, J. B. Foresman, J. V. Ortiz, J. Cioslowski, 
 and D. J. Fox, Gaussian, Inc., Wallingford CT, 2010.
 
 ******************************************
 Gaussian 09:  EM64L-G09RevC.01 23-Sep-2011
                 2-Mar-2021 
 ******************************************
 %chk=octa1.chk
 -----------------------------------------
 # pop=full b3lyp/6-31g* geom=connectivity
 -----------------------------------------
 1/38=1,57=2/1;
 2/12=2,17=6,18=5,40=1/2;
 3/5=1,6=6,7=1,11=2,16=1,25=1,30=1,74=-5/1,2,3;
 4//1;
 5/5=2,38=5/2;
 6/7=3,28=1/1;
 99/5=1,9=1/99;
 -------------------
 Title Card Required
 -------------------
 Charge =  0 Multiplicity = 1
 Symbolic Z-Matrix:
 C                    -4.61988  -0.20468   0. 
 H                    -4.08672  -1.13238   0. 
 H                    -5.68988  -0.20468   0. 
 C                    -3.94461   0.9703    0. 
 H                    -4.47777   1.898     0. 
 C                    -2.40461   0.9703    0. 
 H                    -1.87145   0.04259   0. 
 C                    -1.72237   2.14124   0. 
 H                    -2.25001   3.0721    0. 
 C                    -0.18239   2.13209   0. 
 H                     0.34525   1.20124   0. 
 C                     0.5068    3.29896   0. 
 H                    -0.01531   4.23294   0. 
 C                     2.04669   3.28066   0. 
 H                     2.56879   2.34669   0. 
 C                     2.7428    4.44342   0. 
 H                     2.22625   5.38048   0. 
 H                     3.81263   4.42435   0. 
 
                          Input orientation:                          
 ---------------------------------------------------------------------
 Center     Atomic      Atomic             Coordinates (Angstroms)
 Number     Number       Type             X           Y           Z
 ---------------------------------------------------------------------
      1          6           0       -4.619883   -0.204678    0.000000
      2          1           0       -4.086719   -1.132383    0.000000
      3          1           0       -5.689883   -0.204678    0.000000
      4          6           0       -3.944609    0.970299    0.000000
      5          1           0       -4.477773    1.898004    0.000000
      6          6           0       -2.404609    0.970299    0.000000
      7          1           0       -1.871445    0.042594    0.000000
      8          6           0       -1.722366    2.141243    0.000000
      9          1           0       -2.250008    3.072100    0.000000
     10          6           0       -0.182393    2.132094    0.000000
     11          1           0        0.345250    1.201237    0.000000
     12          6           0        0.506796    3.298964    0.000000
     13          1           0       -0.015307    4.232939    0.000000
     14          6           0        2.046687    3.280665    0.000000
     15          1           0        2.568790    2.346690    0.000000
     16          6           0        2.742796    4.443420    0.000000
     17          1           0        2.226252    5.380480    0.000000
     18          1           0        3.812626    4.424349    0.000000
 ---------------------------------------------------------------------
                    Distance matrix (angstroms):
                    1          2          3          4          5
     1  C    0.000000
     2  H    1.070000   0.000000
     3  H    1.070000   1.852234   0.000000
     4  C    1.355200   2.107479   2.103938   0.000000
     5  H    2.107479   3.055514   2.427032   1.070000   0.000000
     6  C    2.507591   2.692725   3.489068   1.540000   2.271265
     7  H    2.759539   2.507591   3.826436   2.271265   3.199295
     8  C    3.728131   4.038168   4.609181   2.511867   2.766123
     9  H    4.043956   4.588157   4.750791   2.699859   2.518221
    10  C    5.015160   5.089261   5.982721   3.937517   4.301754
    11  H    5.160343   5.008806   6.196727   4.296070   4.873092
    12  C    6.209537   6.382572   7.118591   5.023712   5.177703
    13  H    6.394886   6.735212   7.203698   5.107273   5.036420
    14  C    7.522684   7.556035   8.485407   6.421325   6.669357
    15  H    7.628007   7.509977   8.643793   6.657238   7.060833
    16  C    8.707116   8.816568   9.628857   7.535513   7.656093
    17  H    8.835359   9.070336   9.688095   7.584802   7.554574
    18  H    9.619517   9.657998  10.570032   8.491475   8.666783
                    6          7          8          9         10
     6  C    0.000000
     7  H    1.070000   0.000000
     8  C    1.355200   2.103938   0.000000
     9  H    2.107479   3.053066   1.070000   0.000000
    10  C    2.507591   2.686802   1.540000   2.271265   0.000000
    11  H    2.759539   2.501238   2.271265   3.199295   1.070000
    12  C    3.728131   4.032366   2.511867   2.766123   1.355200
    13  H    4.043956   4.583038   2.699859   2.518221   2.107479
    14  C    5.015160   5.082997   3.937517   4.301754   2.507591
    15  H    5.160343   5.002454   4.296070   4.873092   2.759539
    16  C    6.209537   6.376401   5.023712   5.177703   3.728131
    17  H    6.394886   6.729350   5.107273   5.036420   4.043956
    18  H    7.112276   7.176938   5.987379   6.211611   4.605932
                   11         12         13         14         15
    11  H    0.000000
    12  C    2.103938   0.000000
    13  H    3.053066   1.070000   0.000000
    14  C    2.686802   1.540000   2.271265   0.000000
    15  H    2.501238   2.271265   3.199295   1.070000   0.000000
    16  C    4.032366   2.511867   2.766123   1.355200   2.103938
    17  H    4.583038   2.699859   2.518221   2.107479   3.053066
    18  H    4.734041   3.492135   3.832716   2.103938   2.421527
                   16         17         18
    16  C    0.000000
    17  H    1.070000   0.000000
    18  H    1.070000   1.852234   0.000000
 Stoichiometry    C8H10
 Framework group  CS[SG(C8H10)]
 Deg. of freedom    33
 Full point group                 CS      NOp   2
 Largest Abelian subgroup         CS      NOp   2
 Largest concise Abelian subgroup C1      NOp   1
                         Standard orientation:                         
 ---------------------------------------------------------------------
 Center     Atomic      Atomic             Coordinates (Angstroms)
 Number     Number       Type             X           Y           Z
 ---------------------------------------------------------------------
      1          6           0       -0.365820    4.336239    0.000000
      2          1           0       -1.434969    4.293567    0.000000
      3          1           0        0.129923    5.284468    0.000000
      4          6           0        0.362578    3.193434    0.000000
      5          1           0        1.431727    3.236105    0.000000
      6          6           0       -0.350921    1.828692    0.000000
      7          1           0       -1.420070    1.786021    0.000000
      8          6           0        0.370674    0.681579    0.000000
      9          1           0        1.440057    0.717898    0.000000
     10          6           0       -0.350921   -0.678899    0.000000
     11          1           0       -1.420305   -0.715217    0.000000
     12          6           0        0.363846   -1.830279    0.000000
     13          1           0        1.433426   -1.800314    0.000000
     14          6           0       -0.365820   -3.186445    0.000000
     15          1           0       -1.435400   -3.216409    0.000000
     16          6           0        0.342094   -4.342051    0.000000
     17          1           0        1.411833   -4.318443    0.000000
     18          1           0       -0.170471   -5.281294    0.000000
 ---------------------------------------------------------------------
 Rotational constants (GHZ):     17.8772038      0.5551974      0.5384745
 Standard basis: 6-31G(d) (6D, 7F)
 There are   108 symmetry adapted basis functions of A'  symmetry.
 There are    32 symmetry adapted basis functions of A"  symmetry.
 Integral buffers will be    131072 words long.
 Raffenetti 2 integral format.
 Two-electron integral symmetry is turned on.
   140 basis functions,   264 primitive gaussians,   140 cartesian basis functions
    29 alpha electrons       29 beta electrons
       nuclear repulsion energy       293.0134443259 Hartrees.
 NAtoms=   18 NActive=   18 NUniq=   18 SFac= 1.00D+00 NAtFMM=   60 NAOKFM=F Big=F
 One-electron integrals computed using PRISM.
 NBasis=   140 RedAO= T  NBF=   108    32
 NBsUse=   140 1.00D-06 NBFU=   108    32
 Harris functional with IExCor=  402 diagonalized for initial guess.
 ExpMin= 1.61D-01 ExpMax= 3.05D+03 ExpMxC= 4.57D+02 IAcc=1 IRadAn=         1 AccDes= 0.00D+00
 HarFok:  IExCor=  402 AccDes= 0.00D+00 IRadAn=         1 IDoV= 1
 ScaDFX=  1.000000  1.000000  1.000000  1.000000
 FoFCou: FMM=F IPFlag=           0 FMFlag=      100000 FMFlg1=           0
         NFxFlg=           0 DoJE=T BraDBF=F KetDBF=T FulRan=T
         Omega=  0.000000  0.000000  1.000000  0.000000  0.000000 ICntrl=     500 IOpCl=  0
         NMat0=    1 NMatS0=    1 NMatT0=    0 NMatD0=    1 NMtDS0=    0 NMtDT0=    0
         I1Cent=           4 NGrid=           0.
 Petite list used in FoFCou.
 Initial guess orbital symmetries:
       Occupied  (A') (A') (A') (A') (A') (A') (A') (A') (A') (A')
                 (A') (A') (A') (A') (A') (A') (A') (A') (A') (A')
                 (A') (A') (A') (A') (A') (A") (A") (A") (A")
       Virtual   (A") (A") (A") (A") (A') (A') (A') (A') (A') (A')
                 (A') (A') (A') (A') (A') (A') (A') (A') (A') (A')
                 (A') (A') (A') (A") (A') (A") (A") (A') (A") (A')
                 (A') (A') (A') (A") (A') (A') (A") (A") (A") (A')
                 (A') (A') (A') (A') (A') (A') (A') (A') (A') (A')
                 (A') (A') (A') (A') (A') (A') (A') (A') (A') (A')
                 (A") (A") (A") (A') (A') (A") (A") (A') (A") (A")
                 (A") (A") (A') (A') (A') (A') (A') (A") (A') (A')
                 (A') (A") (A') (A') (A") (A') (A') (A') (A') (A')
                 (A") (A") (A") (A") (A') (A') (A') (A') (A') (A')
                 (A') (A') (A') (A') (A') (A') (A') (A') (A') (A')
                 (A')
 The electronic state of the initial guess is 1-A'.
 Requested convergence on RMS density matrix=1.00D-08 within 128 cycles.
 Requested convergence on MAX density matrix=1.00D-06.
 Requested convergence on             energy=1.00D-06.
 No special actions if energy rises.
 Integral accuracy reduced to 1.0D-05 until final iterations.
 Initial convergence to 1.0D-05 achieved.  Increase integral accuracy.
 SCF Done:  E(RB3LYP) =  -310.784987290     A.U. after   14 cycles
             Convg  =    0.1677D-08             -V/T =  2.0110

 **********************************************************************

            Population analysis using the SCF density.

 **********************************************************************

 Orbital symmetries:
       Occupied  (A') (A') (A') (A') (A') (A') (A') (A') (A') (A')
                 (A') (A') (A') (A') (A') (A') (A') (A') (A') (A')
                 (A') (A') (A') (A') (A") (A') (A") (A") (A")
       Virtual   (A") (A") (A") (A") (A') (A') (A') (A') (A') (A')
                 (A') (A') (A') (A') (A') (A') (A') (A') (A') (A')
                 (A') (A') (A') (A") (A') (A") (A") (A') (A") (A')
                 (A') (A") (A') (A') (A") (A') (A') (A") (A") (A')
                 (A') (A') (A') (A') (A') (A') (A') (A') (A') (A')
                 (A') (A') (A') (A') (A') (A') (A') (A') (A') (A')
                 (A') (A") (A") (A") (A') (A") (A') (A") (A") (A")
                 (A") (A") (A') (A') (A') (A') (A') (A") (A') (A')
                 (A') (A") (A') (A') (A") (A') (A') (A') (A') (A')
                 (A") (A") (A") (A") (A') (A') (A') (A') (A') (A')
                 (A') (A') (A') (A') (A') (A') (A') (A') (A') (A')
                 (A')
 The electronic state is 1-A'.
 Alpha  occ. eigenvalues --  -10.19760 -10.19727 -10.19645 -10.19625 -10.19513
 Alpha  occ. eigenvalues --  -10.19505 -10.17999 -10.17962  -0.80912  -0.78512
 Alpha  occ. eigenvalues --   -0.74943  -0.70900  -0.60880  -0.56883  -0.56416
 Alpha  occ. eigenvalues --   -0.55328  -0.47721  -0.45864  -0.45170  -0.41163
 Alpha  occ. eigenvalues --   -0.40057  -0.38442  -0.38075  -0.36124  -0.33197
 Alpha  occ. eigenvalues --   -0.33049  -0.30172  -0.25552  -0.20179
 Alpha virt. eigenvalues --   -0.04429   0.01552   0.06611   0.08876   0.10161
 Alpha virt. eigenvalues --    0.12776   0.12847   0.13074   0.14650   0.14876
 Alpha virt. eigenvalues --    0.17090   0.18632   0.19528   0.20475   0.26767
 Alpha virt. eigenvalues --    0.31735   0.32673   0.33958   0.35696   0.38071
 Alpha virt. eigenvalues --    0.39910   0.46579   0.50163   0.52611   0.53857
 Alpha virt. eigenvalues --    0.54413   0.57519   0.58586   0.59215   0.59966
 Alpha virt. eigenvalues --    0.61378   0.62691   0.63091   0.64877   0.65631
 Alpha virt. eigenvalues --    0.67622   0.68908   0.71416   0.72256   0.82860
 Alpha virt. eigenvalues --    0.85173   0.86773   0.87378   0.88097   0.88793
 Alpha virt. eigenvalues --    0.88865   0.90256   0.93082   0.93597   0.94984
 Alpha virt. eigenvalues --    0.98442   1.01572   1.04552   1.04716   1.07384
 Alpha virt. eigenvalues --    1.10028   1.12745   1.21554   1.23831   1.29842
 Alpha virt. eigenvalues --    1.32782   1.34679   1.34858   1.37022   1.39089
 Alpha virt. eigenvalues --    1.43941   1.46535   1.48166   1.54753   1.62139
 Alpha virt. eigenvalues --    1.70518   1.73078   1.74885   1.76679   1.78221
 Alpha virt. eigenvalues --    1.93589   1.94329   1.95458   2.00099   2.02814
 Alpha virt. eigenvalues --    2.03004   2.07945   2.11729   2.14487   2.20806
 Alpha virt. eigenvalues --    2.22892   2.23359   2.29091   2.31808   2.35337
 Alpha virt. eigenvalues --    2.38873   2.39443   2.42473   2.43105   2.48826
 Alpha virt. eigenvalues --    2.67346   2.69923   2.75050   2.83353   2.86622
 Alpha virt. eigenvalues --    2.88483   2.99684   3.00917   4.05422   4.06750
 Alpha virt. eigenvalues --    4.09611   4.15802   4.19005   4.31117   4.41515
 Alpha virt. eigenvalues --    4.50146
     Molecular Orbital Coefficients:
                           1         2         3         4         5
                           O         O         O         O         O
     Eigenvalues --   -10.19760 -10.19727 -10.19645 -10.19625 -10.19513
   1 1   C  1S          0.02084  -0.00001  -0.00051   0.00037  -0.00105
   2        2S          0.00051  -0.00002  -0.00009   0.00004  -0.00010
   3        2PX        -0.00017   0.00001   0.00001  -0.00001   0.00000
   4        2PY         0.00030   0.00000   0.00001  -0.00003   0.00002
   5        2PZ         0.00000   0.00000   0.00000   0.00000   0.00000
   6        3S          0.00488   0.00015   0.00034   0.00030  -0.00030
   7        3PX         0.00046   0.00000   0.00009   0.00024   0.00025
   8        3PY        -0.00211  -0.00010  -0.00033   0.00011   0.00029
   9        3PZ         0.00000   0.00000   0.00000   0.00000   0.00000
  10        4XX        -0.00045   0.00000   0.00002  -0.00001   0.00007
  11        4YY        -0.00046   0.00000   0.00004  -0.00002   0.00005
  12        4ZZ        -0.00033  -0.00001  -0.00003   0.00001  -0.00003
  13        4XY         0.00008   0.00000  -0.00001   0.00000  -0.00002
  14        4XZ         0.00000   0.00000   0.00000   0.00000   0.00000
  15        4YZ         0.00000   0.00000   0.00000   0.00000   0.00000
  16 2   H  1S         -0.00015  -0.00001  -0.00004   0.00003   0.00003
  17        2S         -0.00038  -0.00001   0.00009   0.00004   0.00009
  18 3   H  1S         -0.00004   0.00000   0.00000  -0.00003  -0.00003
  19        2S          0.00022   0.00003   0.00015  -0.00016  -0.00003
  20 4   C  1S          0.99151  -0.00002  -0.02042   0.01486  -0.03880
  21        2S          0.04903   0.00001  -0.00111   0.00077  -0.00209
  22        2PX        -0.00003   0.00000   0.00001  -0.00002   0.00014
  23        2PY        -0.00003   0.00002   0.00006  -0.00002   0.00015
  24        2PZ         0.00000   0.00000   0.00000   0.00000   0.00000
  25        3S         -0.01474  -0.00021   0.00116  -0.00082   0.00458
  26        3PX         0.00191   0.00008   0.00005   0.00011  -0.00079
  27        3PY         0.00012  -0.00003  -0.00081  -0.00018  -0.00183
  28        3PZ         0.00000   0.00000   0.00000   0.00000   0.00000
  29        4XX        -0.00914   0.00000   0.00013  -0.00009   0.00008
  30        4YY        -0.00919  -0.00001   0.00013  -0.00007  -0.00005
  31        4ZZ        -0.00946   0.00000   0.00014  -0.00012   0.00022
  32        4XY        -0.00017   0.00000  -0.00002   0.00004  -0.00016
  33        4XZ         0.00000   0.00000   0.00000   0.00000   0.00000
  34        4YZ         0.00000   0.00000   0.00000   0.00000   0.00000
  35 5   H  1S         -0.00042  -0.00001  -0.00005  -0.00002  -0.00008
  36        2S          0.00177   0.00001  -0.00019   0.00019  -0.00020
  37 6   C  1S          0.04479   0.00023   0.24002  -0.20321   0.93425
  38        2S          0.00200  -0.00002   0.01144  -0.00980   0.04654
  39        2PX        -0.00014  -0.00001  -0.00012   0.00013   0.00013
  40        2PY        -0.00019  -0.00001   0.00027  -0.00014  -0.00010
  41        2PZ         0.00000   0.00000   0.00000   0.00000   0.00000
  42        3S          0.00406   0.00060   0.00045  -0.00044  -0.01673
  43        3PX         0.00073   0.00032  -0.00001  -0.00034  -0.00231
  44        3PY         0.00179  -0.00014  -0.00186   0.00118   0.00100
  45        3PZ         0.00000   0.00000   0.00000   0.00000   0.00000
  46        4XX        -0.00071   0.00000  -0.00240   0.00207  -0.00853
  47        4YY        -0.00083   0.00001  -0.00241   0.00204  -0.00857
  48        4ZZ        -0.00060  -0.00002  -0.00242   0.00200  -0.00888
  49        4XY        -0.00018  -0.00001   0.00000  -0.00002  -0.00014
  50        4XZ         0.00000   0.00000   0.00000   0.00000   0.00000
  51        4YZ         0.00000   0.00000   0.00000   0.00000   0.00000
  52 7   H  1S         -0.00011   0.00000  -0.00020   0.00011  -0.00035
  53        2S         -0.00016   0.00010   0.00011  -0.00029   0.00182
  54 8   C  1S          0.01159   0.00182   0.76973  -0.54182  -0.30953
  55        2S          0.00052   0.00005   0.03793  -0.02696  -0.01590
  56        2PX        -0.00004  -0.00001   0.00008   0.00009   0.00022
  57        2PY        -0.00006   0.00003   0.00002   0.00022  -0.00030
  58        2PZ         0.00000   0.00000   0.00000   0.00000   0.00000
  59        3S         -0.00061   0.00005  -0.00820   0.01091   0.01058
  60        3PX         0.00037   0.00014   0.00105  -0.00150  -0.00158
  61        3PY         0.00009  -0.00080  -0.00060  -0.00178   0.00233
  62        3PZ         0.00000   0.00000   0.00000   0.00000   0.00000
  63        4XX        -0.00006  -0.00003  -0.00734   0.00483   0.00260
  64        4YY        -0.00010  -0.00002  -0.00743   0.00479   0.00264
  65        4ZZ        -0.00014  -0.00004  -0.00748   0.00507   0.00282
  66        4XY        -0.00003   0.00002  -0.00020  -0.00006   0.00010
  67        4XZ         0.00000   0.00000   0.00000   0.00000   0.00000
  68        4YZ         0.00000   0.00000   0.00000   0.00000   0.00000
  69 9   H  1S         -0.00004  -0.00004  -0.00039   0.00017   0.00004
  70        2S         -0.00014   0.00001   0.00114  -0.00118  -0.00088
  71 10  C  1S          0.00088   0.01684   0.55543   0.76236  -0.01310
  72        2S          0.00001   0.00077   0.02728   0.03782  -0.00068
  73        2PX         0.00001   0.00003  -0.00011   0.00005   0.00004
  74        2PY        -0.00003   0.00006  -0.00009   0.00019   0.00009
  75        2PZ         0.00000   0.00000   0.00000   0.00000   0.00000
  76        3S          0.00004  -0.00062  -0.00422  -0.01301  -0.00095
  77        3PX        -0.00013  -0.00037  -0.00048  -0.00175  -0.00048
  78        3PY         0.00080  -0.00012   0.00116  -0.00146  -0.00094
  79        3PZ         0.00000   0.00000   0.00000   0.00000   0.00000
  80        4XX        -0.00002  -0.00012  -0.00540  -0.00695   0.00020
  81        4YY         0.00000  -0.00015  -0.00550  -0.00694   0.00025
  82        4ZZ        -0.00003  -0.00019  -0.00546  -0.00722   0.00015
  83        4XY         0.00002  -0.00003  -0.00020  -0.00001   0.00008
  84        4XZ         0.00000   0.00000   0.00000   0.00000   0.00000
  85        4YZ         0.00000   0.00000   0.00000   0.00000   0.00000
  86 11  H  1S         -0.00004  -0.00005  -0.00032  -0.00029   0.00001
  87        2S          0.00001  -0.00013   0.00071   0.00150  -0.00020
  88 12  C  1S          0.00005   0.05106   0.16077   0.26211   0.12505
  89        2S         -0.00003   0.00231   0.00763   0.01259   0.00619
  90        2PX         0.00001   0.00014   0.00007   0.00016  -0.00001
  91        2PY         0.00002   0.00019  -0.00022  -0.00023  -0.00001
  92        2PZ         0.00000   0.00000   0.00000   0.00000   0.00000
  93        3S          0.00061   0.00395   0.00024   0.00065  -0.00175
  94        3PX        -0.00032  -0.00072   0.00014  -0.00031   0.00034
  95        3PY         0.00014  -0.00177   0.00137   0.00173   0.00064
  96        3PZ         0.00000   0.00000   0.00000   0.00000   0.00000
  97        4XX         0.00000  -0.00078  -0.00159  -0.00266  -0.00117
  98        4YY         0.00001  -0.00089  -0.00161  -0.00264  -0.00114
  99        4ZZ        -0.00001  -0.00066  -0.00163  -0.00260  -0.00119
 100        4XY        -0.00001  -0.00018  -0.00001   0.00002  -0.00002
 101        4XZ         0.00000   0.00000   0.00000   0.00000   0.00000
 102        4YZ         0.00000   0.00000   0.00000   0.00000   0.00000
 103 13  H  1S          0.00000  -0.00012  -0.00015  -0.00017  -0.00010
 104        2S          0.00010  -0.00016   0.00001   0.00030   0.00030
 105 14  C  1S         -0.00003   0.99113  -0.01925  -0.02548  -0.00591
 106        2S          0.00001   0.04901  -0.00104  -0.00132  -0.00034
 107        2PX         0.00000   0.00003   0.00000  -0.00003  -0.00003
 108        2PY        -0.00002   0.00003  -0.00005  -0.00003   0.00000
 109        2PZ         0.00000   0.00000   0.00000   0.00000   0.00000
 110        3S         -0.00022  -0.01469   0.00090   0.00120   0.00104
 111        3PX        -0.00008  -0.00189  -0.00006   0.00009   0.00044
 112        3PY         0.00003  -0.00007   0.00084   0.00007   0.00020
 113        3PZ         0.00000   0.00000   0.00000   0.00000   0.00000
 114        4XX         0.00000  -0.00915   0.00013   0.00018   0.00002
 115        4YY        -0.00001  -0.00918   0.00014   0.00016   0.00001
 116        4ZZ         0.00000  -0.00946   0.00014   0.00020   0.00003
 117        4XY         0.00000  -0.00017   0.00000  -0.00005  -0.00002
 118        4XZ         0.00000   0.00000   0.00000   0.00000   0.00000
 119        4YZ         0.00000   0.00000   0.00000   0.00000   0.00000
 120 15  H  1S         -0.00001  -0.00042  -0.00005   0.00001   0.00001
 121        2S          0.00000   0.00178  -0.00013  -0.00025   0.00007
 122 16  C  1S         -0.00001   0.02079  -0.00046  -0.00061  -0.00015
 123        2S         -0.00002   0.00050  -0.00007  -0.00007  -0.00001
 124        2PX        -0.00001   0.00016  -0.00001  -0.00001   0.00000
 125        2PY         0.00000  -0.00031   0.00000  -0.00003  -0.00002
 126        2PZ         0.00000   0.00000   0.00000   0.00000   0.00000
 127        3S          0.00015   0.00487   0.00040  -0.00021  -0.00029
 128        3PX         0.00000  -0.00042  -0.00016   0.00021   0.00000
 129        3PY         0.00010   0.00212   0.00027   0.00019  -0.00010
 130        3PZ         0.00000   0.00000   0.00000   0.00000   0.00000
 131        4XX         0.00000  -0.00045   0.00001   0.00001   0.00001
 132        4YY         0.00000  -0.00046   0.00003   0.00004   0.00000
 133        4ZZ        -0.00001  -0.00033  -0.00002  -0.00001  -0.00001
 134        4XY         0.00000   0.00008  -0.00001   0.00000   0.00000
 135        4XZ         0.00000   0.00000   0.00000   0.00000   0.00000
 136        4YZ         0.00000   0.00000   0.00000   0.00000   0.00000
 137 17  H  1S         -0.00001  -0.00015  -0.00003  -0.00004   0.00000
 138        2S         -0.00001  -0.00038   0.00010   0.00000   0.00004
 139 18  H  1S          0.00000  -0.00004  -0.00001   0.00002   0.00000
 140        2S          0.00003   0.00022   0.00009   0.00020   0.00002
                           6         7         8         9        10
                           O         O         O         O         O
     Eigenvalues --   -10.19505 -10.17999 -10.17962  -0.80912  -0.78512
   1 1   C  1S          0.00012   0.99249   0.00009  -0.04065  -0.07719
   2        2S          0.00001   0.04937   0.00000   0.07753   0.14816
   3        2PX         0.00000  -0.00002   0.00000   0.01406   0.02587
   4        2PY         0.00002  -0.00001   0.00000  -0.03103  -0.05083
   5        2PZ         0.00000   0.00000   0.00000   0.00000   0.00000
   6        3S         -0.00022  -0.01343   0.00001   0.06422   0.11907
   7        3PX        -0.00007  -0.00053   0.00002   0.00444   0.00514
   8        3PY         0.00003   0.00111   0.00000  -0.00606  -0.00791
   9        3PZ         0.00000   0.00000   0.00000   0.00000   0.00000
  10        4XX        -0.00001  -0.00937   0.00000   0.00047   0.00122
  11        4YY        -0.00001  -0.00931   0.00000   0.00242   0.00380
  12        4ZZ         0.00000  -0.00978   0.00000  -0.00444  -0.00822
  13        4XY         0.00001  -0.00007   0.00000  -0.00154  -0.00222
  14        4XZ         0.00000   0.00000   0.00000   0.00000   0.00000
  15        4YZ         0.00000   0.00000   0.00000   0.00000   0.00000
  16 2   H  1S          0.00000  -0.00033   0.00000   0.02101   0.04107
  17        2S          0.00001   0.00228   0.00001   0.00462   0.00840
  18 3   H  1S          0.00001  -0.00037   0.00000   0.01788   0.03740
  19        2S          0.00003   0.00215   0.00000   0.00188   0.00567
  20 4   C  1S          0.00448  -0.02132   0.00000  -0.06534  -0.10153
  21        2S          0.00021  -0.00155  -0.00001   0.12738   0.19896
  22        2PX         0.00000   0.00023   0.00000  -0.02112  -0.03330
  23        2PY        -0.00004  -0.00034   0.00000  -0.01308   0.00867
  24        2PZ         0.00000   0.00000   0.00000   0.00000   0.00000
  25        3S         -0.00011   0.00512   0.00009   0.07783   0.13136
  26        3PX        -0.00024  -0.00107  -0.00004   0.00651   0.01077
  27        3PY         0.00026   0.00168  -0.00007  -0.01141  -0.01035
  28        3PZ         0.00000   0.00000   0.00000   0.00000   0.00000
  29        4XX        -0.00001  -0.00005   0.00000   0.00097   0.00169
  30        4YY         0.00001  -0.00009   0.00000   0.00385   0.00392
  31        4ZZ        -0.00003   0.00007  -0.00001  -0.00701  -0.01058
  32        4XY         0.00002   0.00004   0.00000   0.00134  -0.00016
  33        4XZ         0.00000   0.00000   0.00000   0.00000   0.00000
  34        4YZ         0.00000   0.00000   0.00000   0.00000   0.00000
  35 5   H  1S          0.00003  -0.00006   0.00000   0.03363   0.05371
  36        2S          0.00013  -0.00014   0.00001   0.00447   0.00570
  37 6   C  1S         -0.10936   0.00025   0.00000  -0.09583  -0.08717
  38        2S         -0.00548  -0.00003  -0.00001   0.18569   0.17009
  39        2PX        -0.00002   0.00005   0.00000   0.03243   0.02808
  40        2PY         0.00004  -0.00005   0.00001  -0.03436   0.01283
  41        2PZ         0.00000   0.00000   0.00000   0.00000   0.00000
  42        3S          0.00244  -0.00087  -0.00005   0.13418   0.11097
  43        3PX         0.00024  -0.00068  -0.00002  -0.00086  -0.01145
  44        3PY        -0.00091   0.00044  -0.00012  -0.00005   0.01744
  45        3PZ         0.00000   0.00000   0.00000   0.00000   0.00000
  46        4XX         0.00097   0.00001   0.00000   0.00123   0.00163
  47        4YY         0.00101   0.00004   0.00000   0.00450   0.00388
  48        4ZZ         0.00103  -0.00002  -0.00001  -0.01025  -0.00910
  49        4XY         0.00002   0.00005  -0.00001  -0.00169   0.00155
  50        4XZ         0.00000   0.00000   0.00000   0.00000   0.00000
  51        4YZ         0.00000   0.00000   0.00000   0.00000   0.00000
  52 7   H  1S         -0.00001  -0.00004  -0.00001   0.04961   0.04601
  53        2S         -0.00015  -0.00029   0.00002   0.00714   0.00386
  54 8   C  1S          0.06089   0.00000   0.00000  -0.10687  -0.04336
  55        2S          0.00313  -0.00006  -0.00001   0.20760   0.08449
  56        2PX        -0.00010  -0.00001   0.00001  -0.03583  -0.01586
  57        2PY        -0.00002   0.00000   0.00000   0.01408   0.06670
  58        2PZ         0.00000   0.00000   0.00000   0.00000   0.00000
  59        3S         -0.00358   0.00081   0.00015   0.13961   0.07380
  60        3PX         0.00087  -0.00014  -0.00016   0.00564  -0.00430
  61        3PY         0.00036   0.00076  -0.00011  -0.00842   0.01746
  62        3PZ         0.00000   0.00000   0.00000   0.00000   0.00000
  63        4XX        -0.00042  -0.00001   0.00000   0.00158   0.00048
  64        4YY        -0.00038   0.00003   0.00000   0.00543   0.00023
  65        4ZZ        -0.00052  -0.00002  -0.00001  -0.01140  -0.00447
  66        4XY         0.00005  -0.00002   0.00001  -0.00018  -0.00441
  67        4XZ         0.00000   0.00000   0.00000   0.00000   0.00000
  68        4YZ         0.00000   0.00000   0.00000   0.00000   0.00000
  69 9   H  1S          0.00000  -0.00004   0.00000   0.05516   0.02323
  70        2S          0.00002   0.00006   0.00009   0.00731   0.00341
  71 10  C  1S         -0.30912   0.00000   0.00000  -0.10676   0.04450
  72        2S         -0.01589  -0.00001  -0.00006   0.20737  -0.08673
  73        2PX        -0.00023  -0.00001   0.00000   0.03507  -0.01575
  74        2PY         0.00029   0.00000   0.00000  -0.01389   0.06712
  75        2PZ         0.00000   0.00000   0.00000   0.00000   0.00000
  76        3S          0.01106   0.00014   0.00081   0.13927  -0.07540
  77        3PX         0.00171   0.00016   0.00014  -0.00582  -0.00415
  78        3PY        -0.00220   0.00011  -0.00077   0.00884   0.01756
  79        3PZ         0.00000   0.00000   0.00000   0.00000   0.00000
  80        4XX         0.00257   0.00000  -0.00001   0.00152  -0.00047
  81        4YY         0.00259   0.00000   0.00003   0.00548  -0.00032
  82        4ZZ         0.00280  -0.00001  -0.00002  -0.01139   0.00459
  83        4XY         0.00009   0.00001  -0.00002  -0.00011   0.00436
  84        4XZ         0.00000   0.00000   0.00000   0.00000   0.00000
  85        4YZ         0.00000   0.00000   0.00000   0.00000   0.00000
  86 11  H  1S          0.00003   0.00000  -0.00004   0.05534  -0.02401
  87        2S         -0.00085   0.00010   0.00006   0.00738  -0.00350
  88 12  C  1S          0.93429   0.00000   0.00024  -0.09520   0.08784
  89        2S          0.04655  -0.00001  -0.00003   0.18445  -0.17143
  90        2PX        -0.00013   0.00000  -0.00005  -0.03252   0.02888
  91        2PY         0.00010  -0.00001   0.00005   0.03454   0.01180
  92        2PZ         0.00000   0.00000   0.00000   0.00000   0.00000
  93        3S         -0.01685  -0.00004  -0.00088   0.13355  -0.11156
  94        3PX         0.00232   0.00001   0.00067   0.00062  -0.01134
  95        3PY        -0.00118   0.00011  -0.00043   0.00035   0.01722
  96        3PZ         0.00000   0.00000   0.00000   0.00000   0.00000
  97        4XX        -0.00852   0.00000   0.00002   0.00124  -0.00171
  98        4YY        -0.00858   0.00000   0.00004   0.00445  -0.00381
  99        4ZZ        -0.00888  -0.00001  -0.00002  -0.01019   0.00917
 100        4XY        -0.00014  -0.00001   0.00005  -0.00171  -0.00151
 101        4XZ         0.00000   0.00000   0.00000   0.00000   0.00000
 102        4YZ         0.00000   0.00000   0.00000   0.00000   0.00000
 103 13  H  1S         -0.00034  -0.00001  -0.00004   0.04903  -0.04625
 104        2S          0.00179   0.00002  -0.00029   0.00705  -0.00385
 105 14  C  1S         -0.04318   0.00000  -0.02129  -0.06477   0.10146
 106        2S         -0.00230  -0.00001  -0.00155   0.12625  -0.19877
 107        2PX        -0.00013   0.00000  -0.00022   0.02076  -0.03265
 108        2PY        -0.00015   0.00000   0.00034   0.01295   0.00867
 109        2PZ         0.00000   0.00000   0.00000   0.00000   0.00000
 110        3S          0.00456   0.00009   0.00514   0.07700  -0.13130
 111        3PX         0.00076   0.00004   0.00105  -0.00635   0.01055
 112        3PY         0.00184   0.00007  -0.00171   0.01172  -0.01091
 113        3PZ         0.00000   0.00000   0.00000   0.00000   0.00000
 114        4XX         0.00011   0.00000  -0.00005   0.00096  -0.00163
 115        4YY        -0.00001   0.00000  -0.00009   0.00382  -0.00401
 116        4ZZ         0.00026  -0.00001   0.00007  -0.00696   0.01058
 117        4XY        -0.00016   0.00000   0.00004   0.00140   0.00006
 118        4XZ         0.00000   0.00000   0.00000   0.00000   0.00000
 119        4YZ         0.00000   0.00000   0.00000   0.00000   0.00000
 120 15  H  1S         -0.00008   0.00000  -0.00006   0.03343  -0.05380
 121        2S         -0.00022   0.00001  -0.00014   0.00453  -0.00584
 122 16  C  1S         -0.00113  -0.00009   0.99249  -0.04008   0.07677
 123        2S         -0.00010  -0.00001   0.04937   0.07640  -0.14731
 124        2PX         0.00000   0.00000   0.00002  -0.01341   0.02495
 125        2PY        -0.00002   0.00000   0.00000   0.03086  -0.05106
 126        2PZ         0.00000   0.00000   0.00000   0.00000   0.00000
 127        3S         -0.00028   0.00001  -0.01345   0.06358  -0.11856
 128        3PX        -0.00027  -0.00002   0.00051  -0.00441   0.00520
 129        3PY        -0.00029   0.00000  -0.00112   0.00618  -0.00799
 130        3PZ         0.00000   0.00000   0.00000   0.00000   0.00000
 131        4XX         0.00007   0.00000  -0.00937   0.00042  -0.00115
 132        4YY         0.00005   0.00000  -0.00931   0.00244  -0.00386
 133        4ZZ        -0.00002   0.00000  -0.00978  -0.00438   0.00818
 134        4XY        -0.00002   0.00000  -0.00007  -0.00149   0.00218
 135        4XZ         0.00000   0.00000   0.00000   0.00000   0.00000
 136        4YZ         0.00000   0.00000   0.00000   0.00000   0.00000
 137 17  H  1S          0.00003   0.00000  -0.00033   0.02066  -0.04077
 138        2S          0.00009   0.00001   0.00228   0.00459  -0.00843
 139 18  H  1S         -0.00003   0.00000  -0.00037   0.01762  -0.03718
 140        2S         -0.00004   0.00000   0.00216   0.00185  -0.00559
                          11        12        13        14        15
                           O         O         O         O         O
     Eigenvalues --    -0.74943  -0.70900  -0.60880  -0.56883  -0.56416
   1 1   C  1S         -0.10094  -0.09111  -0.08361   0.06178   0.04701
   2        2S          0.19489   0.17705   0.16706  -0.12491  -0.09492
   3        2PX         0.03154   0.02408  -0.01545   0.08828   0.02012
   4        2PY        -0.04806  -0.02073   0.06277  -0.07141  -0.07744
   5        2PZ         0.00000   0.00000   0.00000   0.00000   0.00000
   6        3S          0.15375   0.14413   0.14760  -0.11495  -0.10203
   7        3PX        -0.00100  -0.00584  -0.01013   0.02919   0.00397
   8        3PY        -0.00666  -0.00169   0.02745  -0.02795  -0.02752
   9        3PZ         0.00000   0.00000   0.00000   0.00000   0.00000
  10        4XX         0.00221   0.00264   0.00425  -0.00372  -0.00326
  11        4YY         0.00349   0.00173  -0.00139   0.00129   0.00111
  12        4ZZ        -0.01054  -0.00932  -0.00781   0.00557   0.00417
  13        4XY        -0.00166  -0.00010   0.00539  -0.00822  -0.00485
  14        4XZ         0.00000   0.00000   0.00000   0.00000   0.00000
  15        4YZ         0.00000   0.00000   0.00000   0.00000   0.00000
  16 2   H  1S          0.05614   0.05448   0.07387  -0.09614  -0.04880
  17        2S          0.00977   0.00891   0.02747  -0.04940  -0.02172
  18 3   H  1S          0.05687   0.06111   0.08947  -0.06558  -0.06946
  19        2S          0.01395   0.01919   0.03647  -0.03013  -0.03173
  20 4   C  1S         -0.09081  -0.04147   0.04834  -0.07944  -0.04002
  21        2S          0.18038   0.08465  -0.09862   0.16425   0.08248
  22        2PX        -0.03117  -0.01751  -0.01639   0.11257  -0.01419
  23        2PY         0.06846   0.10814   0.12528  -0.03009  -0.04786
  24        2PZ         0.00000   0.00000   0.00000   0.00000   0.00000
  25        3S          0.12128   0.04629  -0.08828   0.14782   0.08224
  26        3PX         0.01082   0.00856  -0.01363   0.04239  -0.00497
  27        3PY         0.01316   0.03346   0.04075  -0.01597  -0.00886
  28        3PZ         0.00000   0.00000   0.00000   0.00000   0.00000
  29        4XX         0.00191   0.00109  -0.00279   0.00554   0.00299
  30        4YY        -0.00022  -0.00336   0.00125  -0.00693  -0.00377
  31        4ZZ        -0.00893  -0.00365   0.00435  -0.00682  -0.00332
  32        4XY        -0.00444  -0.00710  -0.00865   0.00214   0.00564
  33        4XZ         0.00000   0.00000   0.00000   0.00000   0.00000
  34        4YZ         0.00000   0.00000   0.00000   0.00000   0.00000
  35 5   H  1S          0.05037   0.02386  -0.04542   0.12425   0.02679
  36        2S          0.00477   0.00185  -0.01360   0.06096   0.00758
  37 6   C  1S          0.01631   0.08991   0.07462   0.03918  -0.03758
  38        2S         -0.03327  -0.17981  -0.15329  -0.08033   0.07685
  39        2PX        -0.00815  -0.02925   0.00299   0.10220  -0.10985
  40        2PY         0.08972   0.07882  -0.09025   0.07940   0.09502
  41        2PZ         0.00000   0.00000   0.00000   0.00000   0.00000
  42        3S         -0.02723  -0.12824  -0.12428  -0.06772   0.07759
  43        3PX        -0.00312   0.01719   0.01454   0.03654  -0.03034
  44        3PY         0.03262   0.02986  -0.03093   0.01680   0.02128
  45        3PZ         0.00000   0.00000   0.00000   0.00000   0.00000
  46        4XX        -0.00019  -0.00271  -0.00430  -0.00230   0.00277
  47        4YY         0.00205   0.00270   0.00420   0.00399  -0.00075
  48        4ZZ         0.00136   0.00846   0.00629   0.00354  -0.00336
  49        4XY         0.00595   0.00508  -0.00620   0.00398   0.00976
  50        4XZ         0.00000   0.00000   0.00000   0.00000   0.00000
  51        4YZ         0.00000   0.00000   0.00000   0.00000   0.00000
  52 7   H  1S         -0.00929  -0.05287  -0.06111  -0.08620   0.08687
  53        2S         -0.00172  -0.00232  -0.01685  -0.04683   0.05048
  54 8   C  1S          0.07894   0.07455  -0.06473  -0.00477   0.08990
  55        2S         -0.15525  -0.15000   0.13267   0.00977  -0.18435
  56        2PX         0.02416   0.02553   0.00718   0.10394  -0.14096
  57        2PY         0.02167  -0.10576  -0.11632  -0.03421  -0.04378
  58        2PZ         0.00000   0.00000   0.00000   0.00000   0.00000
  59        3S         -0.10608  -0.09633   0.11042   0.00439  -0.18222
  60        3PX        -0.01504  -0.01869   0.01380   0.03215  -0.04707
  61        3PY         0.01480  -0.03644  -0.04126  -0.01182  -0.00502
  62        3PZ         0.00000   0.00000   0.00000   0.00000   0.00000
  63        4XX        -0.00199  -0.00214   0.00384   0.00027  -0.00617
  64        4YY        -0.00202   0.00350  -0.00305   0.00146   0.00855
  65        4ZZ         0.00798   0.00691  -0.00556  -0.00061   0.00782
  66        4XY        -0.00171   0.00681   0.00761   0.00321   0.00255
  67        4XZ         0.00000   0.00000   0.00000   0.00000   0.00000
  68        4YZ         0.00000   0.00000   0.00000   0.00000   0.00000
  69 9   H  1S         -0.04371  -0.04370   0.05504   0.05617  -0.14926
  70        2S         -0.00187  -0.00107   0.01581   0.03738  -0.07586
  71 10  C  1S          0.07817  -0.07480  -0.06450   0.00341  -0.09041
  72        2S         -0.15370   0.15045   0.13220  -0.00697   0.18542
  73        2PX        -0.02365   0.02501  -0.00637   0.10290  -0.14148
  74        2PY        -0.02275  -0.10644   0.11629  -0.03264  -0.04243
  75        2PZ         0.00000   0.00000   0.00000   0.00000   0.00000
  76        3S         -0.10539   0.09723   0.11000  -0.00167   0.18285
  77        3PX         0.01480  -0.01864  -0.01353   0.03181  -0.04750
  78        3PY        -0.01528  -0.03681   0.04124  -0.01147  -0.00430
  79        3PZ         0.00000   0.00000   0.00000   0.00000   0.00000
  80        4XX        -0.00194   0.00209   0.00382  -0.00024   0.00621
  81        4YY        -0.00209  -0.00343  -0.00304  -0.00147  -0.00860
  82        4ZZ         0.00791  -0.00694  -0.00553   0.00051  -0.00787
  83        4XY        -0.00180  -0.00677   0.00757  -0.00303  -0.00242
  84        4XZ         0.00000   0.00000   0.00000   0.00000   0.00000
  85        4YZ         0.00000   0.00000   0.00000   0.00000   0.00000
  86 11  H  1S         -0.04332   0.04400   0.05443  -0.05465   0.14993
  87        2S         -0.00188   0.00113   0.01548  -0.03679   0.07605
  88 12  C  1S          0.01522  -0.09021   0.07433  -0.03776   0.03884
  89        2S         -0.03114   0.18045  -0.15268   0.07743  -0.07945
  90        2PX         0.00715  -0.02895  -0.00265   0.10073  -0.11030
  91        2PY        -0.08888   0.07912   0.08956   0.07900   0.09680
  92        2PZ         0.00000   0.00000   0.00000   0.00000   0.00000
  93        3S         -0.02576   0.12803  -0.12370   0.06481  -0.07995
  94        3PX         0.00297   0.01770  -0.01438   0.03591  -0.03069
  95        3PY        -0.03224   0.02955   0.03093   0.01691   0.02217
  96        3PZ         0.00000   0.00000   0.00000   0.00000   0.00000
  97        4XX        -0.00007   0.00267  -0.00442   0.00209  -0.00298
  98        4YY         0.00195  -0.00267   0.00432  -0.00376   0.00098
  99        4ZZ         0.00125  -0.00849   0.00627  -0.00341   0.00346
 100        4XY         0.00599  -0.00522  -0.00605  -0.00413  -0.00973
 101        4XZ         0.00000   0.00000   0.00000   0.00000   0.00000
 102        4YZ         0.00000   0.00000   0.00000   0.00000   0.00000
 103 13  H  1S         -0.00854   0.05291  -0.06127   0.08375  -0.08858
 104        2S         -0.00163   0.00230  -0.01704   0.04561  -0.05118
 105 14  C  1S         -0.09111   0.04197   0.04764   0.07857   0.03989
 106        2S          0.18091  -0.08563  -0.09718  -0.16246  -0.08223
 107        2PX         0.02989  -0.01595   0.01380   0.10974  -0.01636
 108        2PY        -0.06868   0.10950  -0.12452  -0.03279  -0.04852
 109        2PZ         0.00000   0.00000   0.00000   0.00000   0.00000
 110        3S          0.12192  -0.04700  -0.08701  -0.14578  -0.08196
 111        3PX        -0.01077   0.00895   0.01276   0.04158  -0.00556
 112        3PY        -0.01287   0.03374  -0.04053  -0.01690  -0.00879
 113        3PZ         0.00000   0.00000   0.00000   0.00000   0.00000
 114        4XX         0.00177  -0.00092  -0.00293  -0.00553  -0.00308
 115        4YY        -0.00003   0.00319   0.00141   0.00691   0.00384
 116        4ZZ        -0.00897   0.00370   0.00429   0.00675   0.00330
 117        4XY        -0.00439   0.00717  -0.00849  -0.00204  -0.00561
 118        4XZ         0.00000   0.00000   0.00000   0.00000   0.00000
 119        4YZ         0.00000   0.00000   0.00000   0.00000   0.00000
 120 15  H  1S          0.05068  -0.02428  -0.04433  -0.12223  -0.02582
 121        2S          0.00496  -0.00200  -0.01309  -0.05980  -0.00696
 122 16  C  1S         -0.10090   0.09197  -0.08264  -0.06176  -0.04709
 123        2S          0.19478  -0.17869   0.16509   0.12488   0.09504
 124        2PX        -0.03077   0.02397   0.01395   0.08542   0.01816
 125        2PY         0.04869  -0.02149  -0.06200  -0.07286  -0.07787
 126        2PZ         0.00000   0.00000   0.00000   0.00000   0.00000
 127        3S          0.15342  -0.14517   0.14578   0.11468   0.10233
 128        3PX         0.00097  -0.00587   0.00943   0.02821   0.00329
 129        3PY         0.00655  -0.00158  -0.02722  -0.02863  -0.02751
 130        3PZ         0.00000   0.00000   0.00000   0.00000   0.00000
 131        4XX         0.00216  -0.00266   0.00436   0.00395   0.00342
 132        4YY         0.00355  -0.00175  -0.00154  -0.00154  -0.00127
 133        4ZZ        -0.01054   0.00942  -0.00773  -0.00556  -0.00419
 134        4XY        -0.00165   0.00014   0.00519   0.00805   0.00475
 135        4XZ         0.00000   0.00000   0.00000   0.00000   0.00000
 136        4YZ         0.00000   0.00000   0.00000   0.00000   0.00000
 137 17  H  1S          0.05606  -0.05497   0.07289   0.09526   0.04858
 138        2S          0.00987  -0.00910   0.02711   0.04884   0.02154
 139 18  H  1S          0.05681  -0.06163   0.08833   0.06583   0.06966
 140        2S          0.01390  -0.01936   0.03598   0.03019   0.03185
                          16        17        18        19        20
                           O         O         O         O         O
     Eigenvalues --    -0.55328  -0.47721  -0.45864  -0.45170  -0.41163
   1 1   C  1S         -0.03533  -0.00496   0.01210  -0.00634  -0.00386
   2        2S          0.07123   0.01205  -0.02479   0.01374   0.00765
   3        2PX        -0.10333   0.14397   0.15152   0.10010   0.22959
   4        2PY         0.03627   0.13656  -0.08331   0.23687  -0.10124
   5        2PZ         0.00000   0.00000   0.00000   0.00000   0.00000
   6        3S          0.06674  -0.00944  -0.05470   0.00681   0.01366
   7        3PX        -0.03733   0.05567   0.04391   0.03822   0.08249
   8        3PY         0.00962   0.06309  -0.03070   0.08993  -0.04926
   9        3PZ         0.00000   0.00000   0.00000   0.00000   0.00000
  10        4XX         0.00231  -0.00138  -0.00568  -0.00071  -0.01159
  11        4YY        -0.00066   0.00201   0.00178   0.00431   0.00582
  12        4ZZ        -0.00327  -0.00010   0.00101  -0.00046  -0.00022
  13        4XY         0.00639   0.00309  -0.00529   0.00858  -0.00355
  14        4XZ         0.00000   0.00000   0.00000   0.00000   0.00000
  15        4YZ         0.00000   0.00000   0.00000   0.00000   0.00000
  16 2   H  1S          0.08285  -0.07583  -0.09704  -0.05323  -0.13891
  17        2S          0.04581  -0.04810  -0.06787  -0.03570  -0.11622
  18 3   H  1S          0.02572   0.10774  -0.01745   0.15699   0.01183
  19        2S          0.01441   0.06993  -0.00640   0.11576   0.01221
  20 4   C  1S          0.06321   0.00445  -0.02039   0.02529   0.00222
  21        2S         -0.12966  -0.01445   0.04427  -0.05580  -0.00034
  22        2PX        -0.14008   0.18103   0.01527   0.17033  -0.10525
  23        2PY        -0.02691   0.07967   0.15241  -0.01993   0.20220
  24        2PZ         0.00000   0.00000   0.00000   0.00000   0.00000
  25        3S         -0.13014   0.02481   0.02956  -0.04717  -0.06279
  26        3PX        -0.04452   0.03452   0.00022   0.04649  -0.01019
  27        3PY         0.00520   0.02937   0.07481   0.00982   0.07794
  28        3PZ         0.00000   0.00000   0.00000   0.00000   0.00000
  29        4XX        -0.00495   0.00267   0.00237   0.00173  -0.00724
  30        4YY         0.00608   0.00172  -0.00572   0.00498   0.00204
  31        4ZZ         0.00563  -0.00074  -0.00130   0.00116   0.00085
  32        4XY         0.00112   0.00012  -0.00022   0.00429  -0.00193
  33        4XZ         0.00000   0.00000   0.00000   0.00000   0.00000
  34        4YZ         0.00000   0.00000   0.00000   0.00000   0.00000
  35 5   H  1S         -0.12666   0.09503   0.03176   0.07007  -0.06623
  36        2S         -0.06932   0.07580   0.02097   0.06206  -0.06100
  37 6   C  1S         -0.06593   0.00029   0.01013  -0.03575   0.00110
  38        2S          0.13471  -0.00210  -0.02868   0.07449  -0.00597
  39        2PX        -0.12678   0.01620  -0.20935   0.00539  -0.17467
  40        2PY        -0.00674  -0.17548  -0.03320  -0.11528  -0.03127
  41        2PZ         0.00000   0.00000   0.00000   0.00000   0.00000
  42        3S          0.15033  -0.00801   0.04456   0.10622   0.01655
  43        3PX        -0.03552  -0.00004  -0.03957   0.01873  -0.04729
  44        3PY         0.00496  -0.09198  -0.03254  -0.04880   0.01961
  45        3PZ         0.00000   0.00000   0.00000   0.00000   0.00000
  46        4XX         0.00504  -0.00144   0.00380   0.00352   0.00782
  47        4YY        -0.00610  -0.00059   0.00268  -0.00775  -0.00335
  48        4ZZ        -0.00580  -0.00031  -0.00073  -0.00260  -0.00070
  49        4XY        -0.00118  -0.00186   0.00321  -0.00094  -0.00390
  50        4XZ         0.00000   0.00000   0.00000   0.00000   0.00000
  51        4YZ         0.00000   0.00000   0.00000   0.00000   0.00000
  52 7   H  1S          0.12181  -0.00742   0.10644   0.03497   0.10549
  53        2S          0.06599  -0.00879   0.08391   0.01845   0.08600
  54 8   C  1S          0.03336  -0.00369  -0.00149   0.01797  -0.02202
  55        2S         -0.06785   0.01307   0.00901  -0.03729   0.04327
  56        2PX        -0.06933  -0.16255  -0.13115  -0.07867   0.10028
  57        2PY         0.04248   0.07950  -0.20043   0.13226  -0.04717
  58        2PZ         0.00000   0.00000   0.00000   0.00000   0.00000
  59        3S         -0.07505  -0.04997  -0.03784  -0.07463   0.10448
  60        3PX        -0.01529  -0.02816  -0.02257  -0.00497   0.00206
  61        3PY         0.00113   0.04059  -0.10526   0.02396  -0.05117
  62        3PZ         0.00000   0.00000   0.00000   0.00000   0.00000
  63        4XX        -0.00268  -0.00320  -0.00185  -0.00573   0.00888
  64        4YY         0.00184  -0.00246   0.00002   0.00398  -0.00735
  65        4ZZ         0.00298   0.00075   0.00110   0.00132  -0.00193
  66        4XY        -0.00766  -0.00172   0.00207  -0.00819  -0.00264
  67        4XZ         0.00000   0.00000   0.00000   0.00000   0.00000
  68        4YZ         0.00000   0.00000   0.00000   0.00000   0.00000
  69 9   H  1S         -0.06436  -0.08376  -0.07261  -0.06321   0.08700
  70        2S         -0.03691  -0.06609  -0.05540  -0.04931   0.07203
  71 10  C  1S          0.03254   0.00407  -0.00176   0.01788   0.02247
  72        2S         -0.06617  -0.01372   0.00959  -0.03704  -0.04430
  73        2PX         0.06933  -0.15936   0.13252   0.07983   0.09854
  74        2PY        -0.04338   0.08007   0.19973  -0.13294  -0.05145
  75        2PZ         0.00000   0.00000   0.00000   0.00000   0.00000
  76        3S         -0.07346   0.04757  -0.03775  -0.07529  -0.10561
  77        3PX         0.01519  -0.02812   0.02294   0.00520   0.00155
  78        3PY        -0.00101   0.04176   0.10515  -0.02396  -0.05251
  79        3PZ         0.00000   0.00000   0.00000   0.00000   0.00000
  80        4XX        -0.00267   0.00309  -0.00187  -0.00574  -0.00880
  81        4YY         0.00177   0.00253  -0.00007   0.00395   0.00730
  82        4ZZ         0.00291  -0.00070   0.00110   0.00132   0.00193
  83        4XY        -0.00777   0.00162   0.00192  -0.00820   0.00252
  84        4XZ         0.00000   0.00000   0.00000   0.00000   0.00000
  85        4YZ         0.00000   0.00000   0.00000   0.00000   0.00000
  86 11  H  1S         -0.06373   0.08160  -0.07298  -0.06371  -0.08619
  87        2S         -0.03679   0.06433  -0.05563  -0.04969  -0.07108
  88 12  C  1S         -0.06638  -0.00062   0.00982  -0.03571  -0.00189
  89        2S          0.13559   0.00268  -0.02813   0.07430   0.00765
  90        2PX         0.12799   0.01669   0.21047  -0.00272  -0.17518
  91        2PY         0.00756  -0.17320   0.03269   0.11790  -0.02904
  92        2PZ         0.00000   0.00000   0.00000   0.00000   0.00000
  93        3S          0.15146   0.01018   0.04564   0.10643  -0.01407
  94        3PX         0.03567  -0.00097   0.03972  -0.01787  -0.04710
  95        3PY        -0.00448  -0.09036   0.03313   0.05052   0.01945
  96        3PZ         0.00000   0.00000   0.00000   0.00000   0.00000
  97        4XX         0.00504   0.00158   0.00388   0.00355  -0.00771
  98        4YY        -0.00613   0.00049   0.00255  -0.00777   0.00321
  99        4ZZ        -0.00584   0.00026  -0.00076  -0.00261   0.00065
 100        4XY        -0.00150   0.00195   0.00309  -0.00114   0.00396
 101        4XZ         0.00000   0.00000   0.00000   0.00000   0.00000
 102        4YZ         0.00000   0.00000   0.00000   0.00000   0.00000
 103 13  H  1S          0.12283   0.00917   0.10721   0.03583  -0.10498
 104        2S          0.06663   0.01003   0.08465   0.01926  -0.08614
 105 14  C  1S          0.06475  -0.00443  -0.02029   0.02549  -0.00199
 106        2S         -0.13287   0.01430   0.04399  -0.05624  -0.00001
 107        2PX         0.14201   0.17891  -0.01979  -0.17250  -0.09901
 108        2PY         0.02396   0.07573  -0.15302   0.01991   0.20154
 109        2PZ         0.00000   0.00000   0.00000   0.00000   0.00000
 110        3S         -0.13267  -0.02434   0.02962  -0.04751   0.06129
 111        3PX         0.04529   0.03434  -0.00143  -0.04732  -0.00888
 112        3PY        -0.00651   0.02790  -0.07530  -0.01020   0.07688
 113        3PZ         0.00000   0.00000   0.00000   0.00000   0.00000
 114        4XX        -0.00505  -0.00263   0.00242   0.00189   0.00692
 115        4YY         0.00622  -0.00171  -0.00570   0.00489  -0.00179
 116        4ZZ         0.00576   0.00072  -0.00131   0.00116  -0.00081
 117        4XY         0.00118  -0.00014  -0.00024   0.00440   0.00179
 118        4XZ         0.00000   0.00000   0.00000   0.00000   0.00000
 119        4YZ         0.00000   0.00000   0.00000   0.00000   0.00000
 120 15  H  1S         -0.12878  -0.09333   0.03310   0.07128   0.06338
 121        2S         -0.07027  -0.07442   0.02225   0.06308   0.05822
 122 16  C  1S         -0.03694   0.00484   0.01215  -0.00636   0.00372
 123        2S          0.07452  -0.01177  -0.02487   0.01379  -0.00733
 124        2PX         0.10419   0.14362  -0.15196  -0.10853   0.22075
 125        2PY        -0.04046   0.13092   0.08421  -0.23669  -0.10608
 126        2PZ         0.00000   0.00000   0.00000   0.00000   0.00000
 127        3S          0.06956   0.00913  -0.05535   0.00651  -0.01312
 128        3PX         0.03774   0.05597  -0.04422  -0.04132   0.07920
 129        3PY        -0.01134   0.06088   0.03046  -0.08994  -0.05076
 130        3PZ         0.00000   0.00000   0.00000   0.00000   0.00000
 131        4XX         0.00260   0.00124  -0.00587  -0.00054   0.01131
 132        4YY        -0.00090  -0.00187   0.00198   0.00413  -0.00563
 133        4ZZ        -0.00340   0.00010   0.00102  -0.00047   0.00022
 134        4XY         0.00652  -0.00308  -0.00510   0.00872   0.00328
 135        4XZ         0.00000   0.00000   0.00000   0.00000   0.00000
 136        4YZ         0.00000   0.00000   0.00000   0.00000   0.00000
 137 17  H  1S          0.08494   0.07439  -0.09818  -0.05563   0.13455
 138        2S          0.04682   0.04715  -0.06854  -0.03746   0.11239
 139 18  H  1S          0.02783  -0.10539  -0.01608   0.15895  -0.00913
 140        2S          0.01542  -0.06822  -0.00552   0.11718  -0.00992
                          21        22        23        24        25
                           O         O         O         O         O
     Eigenvalues --    -0.40057  -0.38442  -0.38075  -0.36124  -0.33197
   1 1   C  1S          0.01248   0.01324   0.00860   0.00244   0.00000
   2        2S         -0.02737  -0.02766  -0.01945  -0.00478   0.00000
   3        2PX        -0.00813  -0.23505   0.02788  -0.14980   0.00000
   4        2PY         0.23131   0.05554   0.10550  -0.09839   0.00000
   5        2PZ         0.00000   0.00000   0.00000   0.00000   0.09836
   6        3S         -0.04949  -0.05299  -0.03423  -0.01215   0.00000
   7        3PX        -0.01035  -0.08647   0.00875  -0.04645   0.00000
   8        3PY         0.08220   0.03061   0.03514  -0.03539   0.00000
   9        3PZ         0.00000   0.00000   0.00000   0.00000   0.06161
  10        4XX         0.00104   0.01568  -0.00144   0.01433   0.00000
  11        4YY         0.00485  -0.01019   0.00379  -0.01395   0.00000
  12        4ZZ         0.00043   0.00080   0.00018   0.00023   0.00000
  13        4XY         0.00927  -0.00069   0.00460  -0.00756   0.00000
  14        4XZ         0.00000   0.00000   0.00000   0.00000   0.00255
  15        4YZ         0.00000   0.00000   0.00000   0.00000  -0.00524
  16 2   H  1S         -0.00797   0.14728  -0.02638   0.11399   0.00000
  17        2S          0.00338   0.14311  -0.01390   0.12143   0.00000
  18 3   H  1S          0.11910  -0.05482   0.06278  -0.11709   0.00000
  19        2S          0.11205  -0.04684   0.06382  -0.11373   0.00000
  20 4   C  1S          0.01409  -0.00594   0.00839   0.00438   0.00000
  21        2S         -0.03078   0.00766  -0.01942  -0.01181   0.00000
  22        2PX         0.11741   0.20762   0.03695   0.18244   0.00000
  23        2PY        -0.14954  -0.10013  -0.05253   0.12712   0.00000
  24        2PZ         0.00000   0.00000   0.00000   0.00000   0.15759
  25        3S         -0.02270   0.05457  -0.01417  -0.02680   0.00000
  26        3PX         0.02193   0.04213  -0.00443   0.05662   0.00000
  27        3PY        -0.02486  -0.03164  -0.01237   0.04420   0.00000
  28        3PZ         0.00000   0.00000   0.00000   0.00000   0.09800
  29        4XX         0.00650   0.01807   0.00358   0.01708   0.00000
  30        4YY        -0.00119  -0.01286  -0.00192  -0.01436   0.00000
  31        4ZZ         0.00073  -0.00135   0.00024  -0.00048   0.00000
  32        4XY         0.00971   0.00189   0.00557  -0.00523   0.00000
  33        4XZ         0.00000   0.00000   0.00000   0.00000  -0.00397
  34        4YZ         0.00000   0.00000   0.00000   0.00000  -0.00259
  35 5   H  1S          0.06128   0.15043   0.02123   0.13493   0.00000
  36        2S          0.06924   0.14684   0.03774   0.14150   0.00000
  37 6   C  1S         -0.01902   0.01655   0.00860   0.02352   0.00000
  38        2S          0.03905  -0.03466  -0.02007  -0.05126   0.00000
  39        2PX        -0.14957  -0.07377  -0.17591  -0.16712   0.00000
  40        2PY         0.15414   0.01365   0.15860  -0.13717   0.00000
  41        2PZ         0.00000   0.00000   0.00000   0.00000   0.22857
  42        3S          0.07908  -0.06398  -0.03611  -0.09506   0.00000
  43        3PX        -0.02292  -0.02378  -0.04745  -0.06084   0.00000
  44        3PY         0.04478  -0.01730   0.04520  -0.04963   0.00000
  45        3PZ         0.00000   0.00000   0.00000   0.00000   0.14131
  46        4XX         0.01413   0.00363   0.01652   0.01060   0.00000
  47        4YY        -0.01147  -0.00128  -0.01058  -0.00617   0.00000
  48        4ZZ        -0.00138   0.00095   0.00009   0.00086   0.00000
  49        4XY         0.00668   0.00587   0.00353  -0.00301   0.00000
  50        4XZ         0.00000   0.00000   0.00000   0.00000   0.00585
  51        4YZ         0.00000   0.00000   0.00000   0.00000  -0.00504
  52 7   H  1S          0.12010   0.03386   0.12000   0.09762   0.00000
  53        2S          0.11065   0.04379   0.13513   0.10823   0.00000
  54 8   C  1S          0.02537   0.00011   0.01575  -0.01730   0.00000
  55        2S         -0.05475  -0.00083  -0.03689   0.03641   0.00000
  56        2PX         0.14591  -0.08004   0.27091   0.02593   0.00000
  57        2PY        -0.11208  -0.15074  -0.07523  -0.02049   0.00000
  58        2PZ         0.00000   0.00000   0.00000   0.00000   0.25330
  59        3S         -0.08457   0.00611  -0.04742   0.05635   0.00000
  60        3PX         0.05970  -0.03180   0.07018  -0.00284   0.00000
  61        3PY        -0.03752  -0.04727  -0.01034  -0.00575   0.00000
  62        3PZ         0.00000   0.00000   0.00000   0.00000   0.15802
  63        4XX         0.00552  -0.00267   0.02180   0.00800   0.00000
  64        4YY         0.00161   0.00247  -0.01426  -0.00869   0.00000
  65        4ZZ         0.00130   0.00004   0.00015  -0.00108   0.00000
  66        4XY         0.00060   0.00348   0.00526  -0.00239   0.00000
  67        4XZ         0.00000   0.00000   0.00000   0.00000  -0.00647
  68        4YZ         0.00000   0.00000   0.00000   0.00000   0.00165
  69 9   H  1S          0.06428  -0.04991   0.17803   0.04639   0.00000
  70        2S          0.06321  -0.03363   0.19256   0.04882   0.00000
  71 10  C  1S         -0.02529   0.00149   0.01567   0.01726   0.00000
  72        2S          0.05464  -0.00367  -0.03674  -0.03632   0.00000
  73        2PX         0.14970   0.08159  -0.26995   0.02647   0.00000
  74        2PY        -0.11061   0.15053   0.07491  -0.02483   0.00000
  75        2PZ         0.00000   0.00000   0.00000   0.00000   0.25288
  76        3S          0.08398   0.00041  -0.04657  -0.05629   0.00000
  77        3PX         0.06072   0.03097  -0.06974  -0.00302   0.00000
  78        3PY        -0.03646   0.04540   0.01029  -0.00687   0.00000
  79        3PZ         0.00000   0.00000   0.00000   0.00000   0.15796
  80        4XX        -0.00574  -0.00299   0.02175  -0.00810   0.00000
  81        4YY        -0.00145   0.00285  -0.01427   0.00875   0.00000
  82        4ZZ        -0.00128   0.00015   0.00014   0.00107   0.00000
  83        4XY        -0.00066   0.00358   0.00523   0.00228   0.00000
  84        4XZ         0.00000   0.00000   0.00000   0.00000   0.00637
  85        4YZ         0.00000   0.00000   0.00000   0.00000  -0.00163
  86 11  H  1S         -0.06688  -0.05236   0.17762  -0.04694   0.00000
  87        2S         -0.06561  -0.03553   0.19221  -0.05002   0.00000
  88 12  C  1S          0.01884   0.01562   0.00856  -0.02387   0.00000
  89        2S         -0.03866  -0.03250  -0.01997   0.05199   0.00000
  90        2PX        -0.14722   0.06827   0.17264  -0.17109   0.00000
  91        2PY         0.15681  -0.02025  -0.16004  -0.13344   0.00000
  92        2PZ         0.00000   0.00000   0.00000   0.00000   0.22747
  93        3S         -0.07824  -0.06126  -0.03591   0.09696   0.00000
  94        3PX        -0.02227   0.02211   0.04651  -0.06220   0.00000
  95        3PY         0.04593   0.01579  -0.04631  -0.04932   0.00000
  96        3PZ         0.00000   0.00000   0.00000   0.00000   0.14041
  97        4XX        -0.01425   0.00353   0.01643  -0.01073   0.00000
  98        4YY         0.01155  -0.00135  -0.01049   0.00624   0.00000
  99        4ZZ         0.00137   0.00094   0.00009  -0.00089   0.00000
 100        4XY        -0.00629   0.00608   0.00314   0.00308   0.00000
 101        4XZ         0.00000   0.00000   0.00000   0.00000  -0.00585
 102        4YZ         0.00000   0.00000   0.00000   0.00000   0.00508
 103 13  H  1S         -0.11965   0.03127   0.11873  -0.09906   0.00000
 104        2S         -0.11034   0.04120   0.13350  -0.11012   0.00000
 105 14  C  1S         -0.01421  -0.00594   0.00843  -0.00444   0.00000
 106        2S          0.03098   0.00761  -0.01945   0.01207   0.00000
 107        2PX         0.11202  -0.20680  -0.03309   0.18873   0.00000
 108        2PY        -0.15008   0.11282   0.05190   0.12138   0.00000
 109        2PZ         0.00000   0.00000   0.00000   0.00000   0.15631
 110        3S          0.02329   0.05669  -0.01471   0.02580   0.00000
 111        3PX         0.02094  -0.04124   0.00514   0.05790   0.00000
 112        3PY        -0.02474   0.03526   0.01190   0.04177   0.00000
 113        3PZ         0.00000   0.00000   0.00000   0.00000   0.09730
 114        4XX        -0.00650   0.01806   0.00349  -0.01736   0.00000
 115        4YY         0.00129  -0.01270  -0.00193   0.01449   0.00000
 116        4ZZ        -0.00075  -0.00135   0.00025   0.00051   0.00000
 117        4XY        -0.00957   0.00172   0.00542   0.00562   0.00000
 118        4XZ         0.00000   0.00000   0.00000   0.00000   0.00393
 119        4YZ         0.00000   0.00000   0.00000   0.00000   0.00254
 120 15  H  1S         -0.05898   0.15035   0.01915  -0.13823   0.00000
 121        2S         -0.06719   0.14676   0.03560  -0.14510   0.00000
 122 16  C  1S         -0.01223   0.01363   0.00832  -0.00286   0.00000
 123        2S          0.02680  -0.02846  -0.01881   0.00572   0.00000
 124        2PX        -0.00081   0.23572  -0.03174  -0.15637   0.00000
 125        2PY         0.23076  -0.06795  -0.10354  -0.09339   0.00000
 126        2PZ         0.00000   0.00000   0.00000   0.00000   0.09726
 127        3S          0.04870  -0.05451  -0.03322   0.01358   0.00000
 128        3PX        -0.00780   0.08684  -0.01004  -0.04871   0.00000
 129        3PY         0.08218  -0.03569  -0.03449  -0.03339   0.00000
 130        3PZ         0.00000   0.00000   0.00000   0.00000   0.06083
 131        4XX        -0.00114   0.01567  -0.00144  -0.01441   0.00000
 132        4YY        -0.00469  -0.00994   0.00372   0.01386   0.00000
 133        4ZZ        -0.00042   0.00082   0.00017  -0.00024   0.00000
 134        4XY        -0.00935  -0.00087   0.00467   0.00813   0.00000
 135        4XZ         0.00000   0.00000   0.00000   0.00000  -0.00244
 136        4YZ         0.00000   0.00000   0.00000   0.00000   0.00522
 137 17  H  1S          0.00990   0.14769  -0.02756  -0.11687   0.00000
 138        2S         -0.00141   0.14333  -0.01528  -0.12446   0.00000
 139 18  H  1S         -0.11996  -0.05078   0.06288   0.11774   0.00000
 140        2S         -0.11265  -0.04312   0.06373   0.11428   0.00000
                          26        27        28        29        30
                           O         O         O         O         V
     Eigenvalues --    -0.33049  -0.30172  -0.25552  -0.20179  -0.04429
   1 1   C  1S         -0.01061   0.00000   0.00000   0.00000   0.00000
   2        2S          0.02277   0.00000   0.00000   0.00000   0.00000
   3        2PX        -0.04119   0.00000   0.00000   0.00000   0.00000
   4        2PY        -0.13956   0.00000   0.00000   0.00000   0.00000
   5        2PZ         0.00000   0.18891   0.25263   0.23345   0.24690
   6        3S          0.04709   0.00000   0.00000   0.00000   0.00000
   7        3PX         0.00017   0.00000   0.00000   0.00000   0.00000
   8        3PY        -0.06050   0.00000   0.00000   0.00000   0.00000
   9        3PZ         0.00000   0.12756   0.19073   0.19884   0.29049
  10        4XX         0.00832   0.00000   0.00000   0.00000   0.00000
  11        4YY        -0.01125   0.00000   0.00000   0.00000   0.00000
  12        4ZZ        -0.00052   0.00000   0.00000   0.00000   0.00000
  13        4XY        -0.00792   0.00000   0.00000   0.00000   0.00000
  14        4XZ         0.00000   0.00453   0.00519   0.00366  -0.00234
  15        4YZ         0.00000  -0.00844  -0.00798  -0.00384   0.00713
  16 2   H  1S          0.05519   0.00000   0.00000   0.00000   0.00000
  17        2S          0.06304   0.00000   0.00000   0.00000   0.00000
  18 3   H  1S         -0.09939   0.00000   0.00000   0.00000   0.00000
  19        2S         -0.10998   0.00000   0.00000   0.00000   0.00000
  20 4   C  1S          0.01768   0.00000   0.00000   0.00000   0.00000
  21        2S         -0.03739   0.00000   0.00000   0.00000   0.00000
  22        2PX         0.09546   0.00000   0.00000   0.00000   0.00000
  23        2PY         0.21386   0.00000   0.00000   0.00000   0.00000
  24        2PZ         0.00000   0.25153   0.23864   0.12503  -0.12900
  25        3S         -0.10326   0.00000   0.00000   0.00000   0.00000
  26        3PX         0.05245   0.00000   0.00000   0.00000   0.00000
  27        3PY         0.07311   0.00000   0.00000   0.00000   0.00000
  28        3PZ         0.00000   0.16406   0.16370   0.08476  -0.16262
  29        4XX         0.00724   0.00000   0.00000   0.00000   0.00000
  30        4YY        -0.00580   0.00000   0.00000   0.00000   0.00000
  31        4ZZ         0.00063   0.00000   0.00000   0.00000   0.00000
  32        4XY        -0.00868   0.00000   0.00000   0.00000   0.00000
  33        4XZ         0.00000  -0.00584  -0.00467  -0.00173  -0.00116
  34        4YZ         0.00000   0.00104   0.01092   0.01678   0.01932
  35 5   H  1S          0.05963   0.00000   0.00000   0.00000   0.00000
  36        2S          0.06959   0.00000   0.00000   0.00000   0.00000
  37 6   C  1S          0.00106   0.00000   0.00000   0.00000   0.00000
  38        2S         -0.00385   0.00000   0.00000   0.00000   0.00000
  39        2PX        -0.07523   0.00000   0.00000   0.00000   0.00000
  40        2PY        -0.22871   0.00000   0.00000   0.00000   0.00000
  41        2PZ         0.00000   0.21022  -0.05282  -0.25535  -0.26020
  42        3S         -0.01330   0.00000   0.00000   0.00000   0.00000
  43        3PX        -0.02069   0.00000   0.00000   0.00000   0.00000
  44        3PY        -0.07645   0.00000   0.00000   0.00000   0.00000
  45        3PZ         0.00000   0.14215  -0.02983  -0.19681  -0.27301
  46        4XX         0.00995   0.00000   0.00000   0.00000   0.00000
  47        4YY        -0.01002   0.00000   0.00000   0.00000   0.00000
  48        4ZZ        -0.00057   0.00000   0.00000   0.00000   0.00000
  49        4XY        -0.00991   0.00000   0.00000   0.00000   0.00000
  50        4XZ         0.00000   0.00505  -0.00090  -0.00387   0.00195
  51        4YZ         0.00000   0.00279   0.01469   0.01253  -0.01342
  52 7   H  1S          0.07122   0.00000   0.00000   0.00000   0.00000
  53        2S          0.08498   0.00000   0.00000   0.00000   0.00000
  54 8   C  1S          0.01065   0.00000   0.00000   0.00000   0.00000
  55        2S         -0.02292   0.00000   0.00000   0.00000   0.00000
  56        2PX         0.09207   0.00000   0.00000   0.00000   0.00000
  57        2PY         0.25125   0.00000   0.00000   0.00000   0.00000
  58        2PZ         0.00000   0.10814  -0.20379  -0.21587   0.21539
  59        3S         -0.06617   0.00000   0.00000   0.00000   0.00000
  60        3PX         0.03683   0.00000   0.00000   0.00000   0.00000
  61        3PY         0.08389   0.00000   0.00000   0.00000   0.00000
  62        3PZ         0.00000   0.06757  -0.15149  -0.16484   0.23543
  63        4XX         0.00923   0.00000   0.00000   0.00000   0.00000
  64        4YY        -0.00854   0.00000   0.00000   0.00000   0.00000
  65        4ZZ         0.00008   0.00000   0.00000   0.00000   0.00000
  66        4XY        -0.01065   0.00000   0.00000   0.00000   0.00000
  67        4XZ         0.00000  -0.00245   0.00420   0.00312   0.00171
  68        4YZ         0.00000   0.01075   0.00365  -0.01676  -0.01865
  69 9   H  1S          0.07067   0.00000   0.00000   0.00000   0.00000
  70        2S          0.08687   0.00000   0.00000   0.00000   0.00000
  71 10  C  1S          0.01079   0.00000   0.00000   0.00000   0.00000
  72        2S         -0.02316   0.00000   0.00000   0.00000   0.00000
  73        2PX        -0.09242   0.00000   0.00000   0.00000   0.00000
  74        2PY        -0.25101   0.00000   0.00000   0.00000   0.00000
  75        2PZ         0.00000  -0.11034  -0.20239   0.21636   0.21493
  76        3S         -0.06708   0.00000   0.00000   0.00000   0.00000
  77        3PX        -0.03707   0.00000   0.00000   0.00000   0.00000
  78        3PY        -0.08260   0.00000   0.00000   0.00000   0.00000
  79        3PZ         0.00000  -0.06905  -0.15051   0.16513   0.23481
  80        4XX         0.00920   0.00000   0.00000   0.00000   0.00000
  81        4YY        -0.00849   0.00000   0.00000   0.00000   0.00000
  82        4ZZ         0.00009   0.00000   0.00000   0.00000   0.00000
  83        4XY        -0.01069   0.00000   0.00000   0.00000   0.00000
  84        4XZ         0.00000  -0.00244  -0.00415   0.00307  -0.00162
  85        4YZ         0.00000   0.01080  -0.00375  -0.01682   0.01865
  86 11  H  1S          0.07070   0.00000   0.00000   0.00000   0.00000
  87        2S          0.08688   0.00000   0.00000   0.00000   0.00000
  88 12  C  1S          0.00094   0.00000   0.00000   0.00000   0.00000
  89        2S         -0.00368   0.00000   0.00000   0.00000   0.00000
  90        2PX         0.07759   0.00000   0.00000   0.00000   0.00000
  91        2PY         0.22835   0.00000   0.00000   0.00000   0.00000
  92        2PZ         0.00000  -0.21166  -0.05091   0.25579  -0.25965
  93        3S         -0.01251   0.00000   0.00000   0.00000   0.00000
  94        3PX         0.02131   0.00000   0.00000   0.00000   0.00000
  95        3PY         0.07759   0.00000   0.00000   0.00000   0.00000
  96        3PZ         0.00000  -0.14297  -0.02844   0.19718  -0.27260
  97        4XX         0.00978   0.00000   0.00000   0.00000   0.00000
  98        4YY        -0.00988   0.00000   0.00000   0.00000   0.00000
  99        4ZZ        -0.00059   0.00000   0.00000   0.00000   0.00000
 100        4XY        -0.01015   0.00000   0.00000   0.00000   0.00000
 101        4XZ         0.00000   0.00516   0.00074  -0.00378  -0.00186
 102        4YZ         0.00000   0.00266  -0.01461   0.01258   0.01338
 103 13  H  1S          0.07116   0.00000   0.00000   0.00000   0.00000
 104        2S          0.08500   0.00000   0.00000   0.00000   0.00000
 105 14  C  1S          0.01788   0.00000   0.00000   0.00000   0.00000
 106        2S         -0.03787   0.00000   0.00000   0.00000   0.00000
 107        2PX        -0.09867   0.00000   0.00000   0.00000   0.00000
 108        2PY        -0.21253   0.00000   0.00000   0.00000   0.00000
 109        2PZ         0.00000  -0.25131   0.23919  -0.12593  -0.12798
 110        3S         -0.10365   0.00000   0.00000   0.00000   0.00000
 111        3PX        -0.05327   0.00000   0.00000   0.00000   0.00000
 112        3PY        -0.07154   0.00000   0.00000   0.00000   0.00000
 113        3PZ         0.00000  -0.16398   0.16404  -0.08535  -0.16113
 114        4XX         0.00703   0.00000   0.00000   0.00000   0.00000
 115        4YY        -0.00555   0.00000   0.00000   0.00000   0.00000
 116        4ZZ         0.00063   0.00000   0.00000   0.00000   0.00000
 117        4XY        -0.00888   0.00000   0.00000   0.00000   0.00000
 118        4XZ         0.00000  -0.00577   0.00449  -0.00149   0.00083
 119        4YZ         0.00000   0.00107  -0.01097   0.01690  -0.01926
 120 15  H  1S          0.05973   0.00000   0.00000   0.00000   0.00000
 121        2S          0.06981   0.00000   0.00000   0.00000   0.00000
 122 16  C  1S         -0.01063   0.00000   0.00000   0.00000   0.00000
 123        2S          0.02272   0.00000   0.00000   0.00000   0.00000
 124        2PX         0.04401   0.00000   0.00000   0.00000   0.00000
 125        2PY         0.13897   0.00000   0.00000   0.00000   0.00000
 126        2PZ         0.00000  -0.18823   0.25261  -0.23466   0.24536
 127        3S          0.04748   0.00000   0.00000   0.00000   0.00000
 128        3PX         0.00086   0.00000   0.00000   0.00000   0.00000
 129        3PY         0.06067   0.00000   0.00000   0.00000   0.00000
 130        3PZ         0.00000  -0.12698   0.19065  -0.19986   0.28855
 131        4XX         0.00807   0.00000   0.00000   0.00000   0.00000
 132        4YY        -0.01100   0.00000   0.00000   0.00000   0.00000
 133        4ZZ        -0.00054   0.00000   0.00000   0.00000   0.00000
 134        4XY        -0.00832   0.00000   0.00000   0.00000   0.00000
 135        4XZ         0.00000   0.00438  -0.00506   0.00362   0.00219
 136        4YZ         0.00000  -0.00849   0.00808  -0.00394  -0.00711
 137 17  H  1S          0.05533   0.00000   0.00000   0.00000   0.00000
 138        2S          0.06320   0.00000   0.00000   0.00000   0.00000
 139 18  H  1S         -0.09958   0.00000   0.00000   0.00000   0.00000
 140        2S         -0.11013   0.00000   0.00000   0.00000   0.00000
                          31        32        33        34        35
                           V         V         V         V         V
     Eigenvalues --     0.01552   0.06611   0.08876   0.10161   0.12776
   1 1   C  1S          0.00000   0.00000   0.00000   0.01192  -0.06415
   2        2S          0.00000   0.00000   0.00000  -0.01534   0.10044
   3        2PX         0.00000   0.00000   0.00000   0.08153  -0.02944
   4        2PY         0.00000   0.00000   0.00000   0.02327   0.13111
   5        2PZ         0.26578  -0.17976   0.07475   0.00000   0.00000
[...]
  28        3PZ         0.42058
  29        4XX         0.01504
  30        4YY         0.00116
  31        4ZZ        -0.02444
  32        4XY         0.00907
  33        4XZ         0.00144
  34        4YZ         0.00652
  35 5   H  1S          0.53772
  36        2S          0.32954
  37 6   C  1S          1.99183
  38        2S          0.71110
  39        2PX         0.74297
  40        2PY         0.73674
  41        2PZ         0.55720
  42        3S          0.54023
  43        3PX         0.18118
  44        3PY         0.22612
  45        3PZ         0.43173
  46        4XX         0.01488
  47        4YY         0.00180
  48        4ZZ        -0.02443
  49        4XY         0.00920
  50        4XZ         0.00141
  51        4YZ         0.00638
  52 7   H  1S          0.53752
  53        2S          0.33135
  54 8   C  1S          1.99184
  55        2S          0.71067
  56        2PX         0.74319
  57        2PY         0.73645
  58        2PZ         0.55678
  59        3S          0.53903
  60        3PX         0.17802
  61        3PY         0.22972
  62        3PZ         0.43380
  63        4XX         0.01490
  64        4YY         0.00174
  65        4ZZ        -0.02452
  66        4XY         0.00915
  67        4XZ         0.00141
  68        4YZ         0.00649
  69 9   H  1S          0.53751
  70        2S          0.33135
  71 10  C  1S          1.99184
  72        2S          0.71076
  73        2PX         0.74282
  74        2PY         0.73692
  75        2PZ         0.55651
  76        3S          0.53944
  77        3PX         0.17901
  78        3PY         0.22912
  79        3PZ         0.43380
  80        4XX         0.01482
  81        4YY         0.00185
  82        4ZZ        -0.02452
  83        4XY         0.00912
  84        4XZ         0.00138
  85        4YZ         0.00654
  86 11  H  1S          0.53766
  87        2S          0.33130
  88 12  C  1S          1.99183
  89        2S          0.71099
  90        2PX         0.74258
  91        2PY         0.73694
  92        2PZ         0.55758
  93        3S          0.53982
  94        3PX         0.18046
  95        3PY         0.22658
  96        3PZ         0.43183
  97        4XX         0.01496
  98        4YY         0.00168
  99        4ZZ        -0.02443
 100        4XY         0.00924
 101        4XZ         0.00141
 102        4YZ         0.00636
 103 13  H  1S          0.53738
 104        2S          0.33144
 105 14  C  1S          1.99183
 106        2S          0.71300
 107        2PX         0.74414
 108        2PY         0.73567
 109        2PZ         0.54855
 110        3S          0.52220
 111        3PX         0.18420
 112        3PY         0.20945
 113        3PZ         0.42079
 114        4XX         0.01495
 115        4YY         0.00122
 116        4ZZ        -0.02444
 117        4XY         0.00909
 118        4XZ         0.00138
 119        4YZ         0.00660
 120 15  H  1S          0.53787
 121        2S          0.32988
 122 16  C  1S          1.99171
 123        2S          0.70501
 124        2PX         0.74684
 125        2PY         0.76044
 126        2PZ         0.55473
 127        3S          0.59081
 128        3PX         0.25503
 129        3PY         0.26106
 130        3PZ         0.46885
 131        4XX         0.01427
 132        4YY         0.00888
 133        4ZZ        -0.02582
 134        4XY         0.00913
 135        4XZ         0.00111
 136        4YZ         0.00314
 137 17  H  1S          0.53461
 138        2S          0.32233
 139 18  H  1S          0.53440
 140        2S          0.32307
          Condensed to atoms (all electrons):
              1          2          3          4          5          6
     1  C    5.056942   0.372694   0.365401   0.629656  -0.051660  -0.026806
     2  H    0.372694   0.561229  -0.040486  -0.036036   0.005716  -0.011422
     3  H    0.365401  -0.040486   0.559632  -0.024302  -0.006571   0.003903
     4  C    0.629656  -0.036036  -0.024302   4.796212   0.368757   0.409785
     5  H   -0.051660   0.005716  -0.006571   0.368757   0.591744  -0.044654
     6  C   -0.026806  -0.011422   0.003903   0.409785  -0.044654   4.906344
     7  H   -0.003494   0.004397  -0.000012  -0.043493   0.003700   0.365368
     8  C    0.001926   0.000459  -0.000169  -0.017601  -0.003813   0.595684
     9  H    0.000369   0.000014  -0.000006  -0.007985   0.003910  -0.053012
    10  C   -0.000179  -0.000003   0.000002   0.003209   0.000134  -0.015405
    11  H   -0.000002   0.000002   0.000000   0.000120   0.000005  -0.003400
    12  C    0.000003   0.000000   0.000000  -0.000170  -0.000003   0.001719
    13  H    0.000000   0.000000   0.000000  -0.000004   0.000001   0.000411
    14  C    0.000000   0.000000   0.000000   0.000001   0.000000  -0.000170
    15  H    0.000000   0.000000   0.000000   0.000000   0.000000  -0.000004
    16  C    0.000000   0.000000   0.000000   0.000000   0.000000   0.000003
    17  H    0.000000   0.000000   0.000000   0.000000   0.000000   0.000000
    18  H    0.000000   0.000000   0.000000   0.000000   0.000000   0.000000
              7          8          9         10         11         12
     1  C   -0.003494   0.001926   0.000369  -0.000179  -0.000002   0.000003
     2  H    0.004397   0.000459   0.000014  -0.000003   0.000002   0.000000
     3  H   -0.000012  -0.000169  -0.000006   0.000002   0.000000   0.000000
     4  C   -0.043493  -0.017601  -0.007985   0.003209   0.000120  -0.000170
     5  H    0.003700  -0.003813   0.003910   0.000134   0.000005  -0.000003
     6  C    0.365368   0.595684  -0.053012  -0.015405  -0.003400   0.001719
     7  H    0.592424  -0.051907   0.005974  -0.008402   0.003878   0.000427
     8  C   -0.051907   4.917299   0.366476   0.386065  -0.044749  -0.015933
     9  H    0.005974   0.366476   0.593609  -0.044623   0.003604  -0.003351
    10  C   -0.008402   0.386065  -0.044623   4.916956   0.366478   0.595647
    11  H    0.003878  -0.044749   0.003604   0.366478   0.594027  -0.053237
    12  C    0.000427  -0.015933  -0.003351   0.595647  -0.053237   4.906847
    13  H    0.000014  -0.008232   0.003767  -0.051689   0.005974   0.365309
    14  C   -0.000004   0.003214   0.000114  -0.017058  -0.008146   0.409760
    15  H    0.000001   0.000141   0.000005  -0.003862   0.004025  -0.044836
    16  C    0.000000  -0.000179  -0.000002   0.001867   0.000384  -0.026907
    17  H    0.000000  -0.000002   0.000001   0.000453   0.000015  -0.011351
    18  H    0.000000   0.000002   0.000000  -0.000166  -0.000007   0.003904
             13         14         15         16         17         18
     1  C    0.000000   0.000000   0.000000   0.000000   0.000000   0.000000
     2  H    0.000000   0.000000   0.000000   0.000000   0.000000   0.000000
     3  H    0.000000   0.000000   0.000000   0.000000   0.000000   0.000000
     4  C   -0.000004   0.000001   0.000000   0.000000   0.000000   0.000000
     5  H    0.000001   0.000000   0.000000   0.000000   0.000000   0.000000
     6  C    0.000411  -0.000170  -0.000004   0.000003   0.000000   0.000000
     7  H    0.000014  -0.000004   0.000001   0.000000   0.000000   0.000000
     8  C   -0.008232   0.003214   0.000141  -0.000179  -0.000002   0.000002
     9  H    0.003767   0.000114   0.000005  -0.000002   0.000001   0.000000
    10  C   -0.051689  -0.017058  -0.003862   0.001867   0.000453  -0.000166
    11  H    0.005974  -0.008146   0.004025   0.000384   0.000015  -0.000007
    12  C    0.365309   0.409760  -0.044836  -0.026907  -0.011351   0.003904
    13  H    0.592096  -0.043402   0.003704  -0.003450   0.004341  -0.000017
    14  C   -0.043402   4.795784   0.368771   0.629904  -0.036040  -0.024107
    15  H    0.003704   0.368771   0.592662  -0.051915   0.005762  -0.006704
    16  C   -0.003450   0.629904  -0.051915   5.057416   0.372612   0.365471
    17  H    0.004341  -0.036040   0.005762   0.372612   0.561693  -0.040544
    18  H   -0.000017  -0.024107  -0.006704   0.365471  -0.040544   0.559637
 Mulliken atomic charges:
              1
     1  C   -0.344848
     2  H    0.143436
     3  H    0.142610
     4  C   -0.078149
     5  H    0.132735
     6  C   -0.128344
     7  H    0.131129
     8  C   -0.128681
     9  H    0.131136
    10  C   -0.129424
    11  H    0.131032
    12  C   -0.127828
    13  H    0.131178
    14  C   -0.078621
    15  H    0.132250
    16  C   -0.345203
    17  H    0.143061
    18  H    0.142531
 Sum of Mulliken atomic charges =   0.00000
 Mulliken charges with hydrogens summed into heavy atoms:
              1
     1  C   -0.058803
     4  C    0.054586
     6  C    0.002785
     8  C    0.002455
    10  C    0.001609
    12  C    0.003350
    14  C    0.053629
    16  C   -0.059612
 Sum of Mulliken charges with hydrogens summed into heavy atoms =   0.00000
 Electronic spatial extent (au):  <R**2>=           2025.1538
 Charge=              0.0000 electrons
 Dipole moment (field-independent basis, Debye):
    X=              0.0021    Y=              0.0204    Z=              0.0000  Tot=              0.0205
 Quadrupole moment (field-independent basis, Debye-Ang):
   XX=            -42.7170   YY=            -45.4263   ZZ=            -54.0114
   XY=              0.6664   XZ=              0.0000   YZ=              0.0000
 Traceless Quadrupole moment (field-independent basis, Debye-Ang):
   XX=              4.6679   YY=              1.9586   ZZ=             -6.6265
   XY=              0.6664   XZ=              0.0000   YZ=              0.0000
 Octapole moment (field-independent basis, Debye-Ang**2):
  XXX=              0.0480  YYY=              0.3974  ZZZ=              0.0000  XYY=              0.0064
  XXY=             -0.0045  XXZ=              0.0000  XZZ=              0.0022  YZZ=              0.0193
  YYZ=              0.0000  XYZ=              0.0000
 Hexadecapole moment (field-independent basis, Debye-Ang**3):
 XXXX=           -135.0302 YYYY=          -2430.0618 ZZZZ=            -56.4320 XXXY=             31.4014
 XXXZ=              0.0000 YYYX=             57.4783 YYYZ=              0.0000 ZZZX=              0.0000
 ZZZY=              0.0000 XXYY=           -418.4735 XXZZ=            -35.8774 YYZZ=           -497.6918
 XXYZ=              0.0000 YYXZ=              0.0000 ZZXY=             13.0356
 N-N= 2.930134443259D+02 E-N=-1.304401903837D+03  KE= 3.074176439310D+02
 Symmetry A'   KE= 2.990126695611D+02
 Symmetry A"   KE= 8.404974369949D+00
 Orbital energies and kinetic energies (alpha):
                                 1                 2
   1         O               -10.197605         15.882020
   2         O               -10.197270         15.881970
   3         O               -10.196447         15.876167
   4         O               -10.196254         15.880525
   5         O               -10.195133         15.885709
   6         O               -10.195047         15.885985
   7         O               -10.179987         15.879184
   8         O               -10.179622         15.879185
   9         O                -0.809122          1.484671
  10         O                -0.785118          1.503177
  11         O                -0.749434          1.535913
  12         O                -0.708999          1.602961
  13         O                -0.608797          1.469796
  14         O                -0.568832          1.210292
  15         O                -0.564156          1.307149
  16         O                -0.553277          1.204911
  17         O                -0.477207          1.055457
  18         O                -0.458639          1.169902
  19         O                -0.451701          1.190709
  20         O                -0.411631          1.242466
  21         O                -0.400570          1.348442
  22         O                -0.384416          1.238649
  23         O                -0.380755          1.250025
  24         O                -0.361240          1.194064
  25         O                -0.331965          0.952685
  26         O                -0.330487          1.447005
  27         O                -0.301722          0.994688
  28         O                -0.255516          1.068977
  29         O                -0.201792          1.186137
  30         V                -0.044292          1.272387
  31         V                 0.015518          1.369946
  32         V                 0.066115          1.412130
  33         V                 0.088759          1.331776
  34         V                 0.101612          0.855279
  35         V                 0.127762          0.969648
  36         V                 0.128475          0.955330
  37         V                 0.130738          0.927556
  38         V                 0.146498          1.071240
  39         V                 0.148758          1.179859
  40         V                 0.170902          1.094349
  41         V                 0.186319          1.519456
  42         V                 0.195281          1.149859
  43         V                 0.204751          1.189956
  44         V                 0.267671          1.843747
  45         V                 0.317348          1.027155
  46         V                 0.326734          1.284448
  47         V                 0.339583          1.801227
  48         V                 0.356962          1.202791
  49         V                 0.380710          1.460994
  50         V                 0.399104          1.844418
  51         V                 0.465790          1.764454
  52         V                 0.501631          1.848688
  53         V                 0.526111          1.997847
  54         V                 0.538571          2.269054
  55         V                 0.544126          2.020484
  56         V                 0.575192          2.077574
  57         V                 0.585860          1.822554
  58         V                 0.592155          2.239568
  59         V                 0.599657          1.584266
  60         V                 0.613781          1.676850
  61         V                 0.626907          2.130185
  62         V                 0.630910          2.127567
  63         V                 0.648773          2.078169
  64         V                 0.656314          2.212149
  65         V                 0.676223          2.373841
  66         V                 0.689076          2.644459
  67         V                 0.714156          2.238418
  68         V                 0.722556          2.200684
  69         V                 0.828601          2.758775
  70         V                 0.851726          2.729185
  71         V                 0.867725          2.758128
  72         V                 0.873777          2.754091
  73         V                 0.880965          2.497710
  74         V                 0.887928          2.666273
  75         V                 0.888650          2.595893
  76         V                 0.902562          2.752432
  77         V                 0.930819          2.583341
  78         V                 0.935966          2.676362
  79         V                 0.949838          2.633774
  80         V                 0.984421          2.560611
  81         V                 1.015716          2.454455
  82         V                 1.045517          2.161181
  83         V                 1.047155          2.140325
  84         V                 1.073836          2.292706
  85         V                 1.100279          2.191311
  86         V                 1.127449          2.192204
  87         V                 1.215536          2.321226
  88         V                 1.238307          2.368308
  89         V                 1.298420          2.451910
  90         V                 1.327819          2.454972
  91         V                 1.346794          2.487821
  92         V                 1.348576          2.494700
  93         V                 1.370221          2.495503
  94         V                 1.390892          2.609683
  95         V                 1.439407          2.610225
  96         V                 1.465353          2.697986
  97         V                 1.481663          2.635841
  98         V                 1.547533          2.700839
  99         V                 1.621386          2.773809
 100         V                 1.705183          2.841902
 101         V                 1.730779          2.883768
 102         V                 1.748852          3.141975
 103         V                 1.766791          3.104673
 104         V                 1.782208          3.171620
 105         V                 1.935894          3.325687
 106         V                 1.943289          3.260386
 107         V                 1.954582          3.094368
 108         V                 2.000988          3.347484
 109         V                 2.028144          3.446524
 110         V                 2.030038          3.347693
 111         V                 2.079449          3.249308
 112         V                 2.117286          3.490067
 113         V                 2.144870          3.447735
 114         V                 2.208060          3.408727
 115         V                 2.228924          3.728272
 116         V                 2.233590          3.647564
 117         V                 2.290911          3.682436
 118         V                 2.318079          3.731577
 119         V                 2.353372          3.816469
 120         V                 2.388732          3.625790
 121         V                 2.394432          3.625109
 122         V                 2.424731          3.665996
 123         V                 2.431048          3.674583
 124         V                 2.488257          4.042685
 125         V                 2.673463          4.411088
 126         V                 2.699233          4.596474
 127         V                 2.750496          4.457490
 128         V                 2.833526          4.400093
 129         V                 2.866217          4.615514
 130         V                 2.884832          4.624990
 131         V                 2.996836          4.725832
 132         V                 3.009170          4.726948
 133         V                 4.054219         10.087801
 134         V                 4.067504         10.089179
 135         V                 4.096107         10.076147
 136         V                 4.158020         10.083919
 137         V                 4.190048         10.027872
 138         V                 4.311170         10.109255
 139         V                 4.415148         10.113308
 140         V                 4.501458         10.112995
 Total kinetic energy from orbitals= 3.074176439310D+02
 1\1\GINC-NISER-THINKCENTRE-M93P\SP\RB3LYP\6-31G(d)\C8H10\STUDENT\02-Ma
 r-2021\0\\# pop=full b3lyp/6-31g* geom=connectivity\\Title Card Requir
 ed\\0,1\C,0,-4.61988322,-0.20467836,0.\H,0,-4.08671947,-1.13238328,0.\
 H,0,-5.68988322,-0.20467836,0.\C,0,-3.94460891,0.97029894,0.\H,0,-4.47
 777266,1.89800386,0.\C,0,-2.40460891,0.97029894,0.\H,0,-1.87144516,0.0
 4259402,0.\C,0,-1.72236551,2.14124342,0.\H,0,-2.25000798,3.07209971,0.
 \C,0,-0.18239269,2.13209366,0.\H,0,0.34524978,1.20123738,0.\C,0,0.5067
 9572,3.298964,0.\H,0,-0.01530685,4.23293879,0.\C,0,2.04668699,3.280664
 81,0.\H,0,2.56878956,2.34669002,0.\C,0,2.74279608,4.4434198,0.\H,0,2.2
 2625185,5.38048013,0.\H,0,3.81262611,4.4243488,0.\\Version=EM64L-G09Re
 vC.01\State=1-A'\HF=-310.7849873\RMSD=1.677e-09\Dipole=-0.0074953,-0.0
 030009,0.\Quadrupole=2.2954356,2.6311983,-4.9266339,-1.1097903,0.,0.\P
 G=CS [SG(C8H10)]\\@


 I DO NOT DEFINE TIME, SPACE, PLACE, AND MOTION, AS BEING WELL KNOWN TO ALL.
                                            -- NEWTON (1642-1726), PRINCIPIA
 Job cpu time:  0 days  0 hours  0 minutes 15.3 seconds.
 File lengths (MBytes):  RWF=     18 Int=      0 D2E=      0 Chk=      3 Scr=      1
 Normal termination of Gaussian 09 at Tue Mar  2 12:00:29 2021.
